 vasp.5.4.4.18Apr17-6-g9f103f2a35 (build Apr 14 2022 13:33:42) complex          
  
 executed on             LinuxIFC date 2025.02.28  18:00:57
 serial version


--------------------------------------------------------------------------------------------------------


 INCAR:
 POTCAR:    PAW_PBE Ti_sv 26Sep2005               
 POTCAR:    PAW_PBE Ti_sv 26Sep2005               
   VRHFIN =Ti: 3p4s3d                                                           
   LEXCH  = PE                                                                  
   EATOM  =  1588.0892 eV,  116.7213 Ry                                         
                                                                                
   TITEL  = PAW_PBE Ti_sv 26Sep2005                                             
   LULTRA =        F    use ultrasoft PP ?                                      
   IUNSCR =        1    unscreen: 0-lin 1-nonlin 2-no                           
   RPACOR =    2.000    partial core radius                                     
   POMASS =   47.880; ZVAL   =   12.000    mass and valenz                      
   RCORE  =    2.300    outmost cutoff radius                                   
   RWIGS  =    2.300; RWIGS  =    1.217    wigner-seitz radius (au A)           
   ENMAX  =  274.610; ENMIN  =  205.957 eV                                      
   ICORE  =        3    local potential                                         
   LCOR   =        T    correct aug charges                                     
   LPAW   =        T    paw PP                                                  
   EAUG   =  482.848                                                            
   RMAX   =    2.348    core radius for proj-oper                               
   RAUG   =    1.300    factor for augmentation sphere                          
   RDEP   =    2.381    radius for radial grids                                 
   RDEPT  =    1.930    core radius for aug-charge                              
                                                                                
   Atomic configuration                                                         
    8 entries                                                                   
     n  l   j            E        occ.                                          
     1  0  0.50     -4865.3608   2.0000                                         
     2  0  0.50      -533.1368   2.0000                                         
     2  1  1.50      -440.5031   6.0000                                         
     3  0  0.50       -59.3186   2.0000                                         
     4  0  0.50        -3.7291   1.0000                                         
     3  1  1.50       -35.7012   6.0000                                         
     3  2  2.50        -1.9157   3.0000                                         
     4  3  2.50        -1.3606   0.0000                                         
   Description                                                                  
     l       E           TYP  RCUT    TYP  RCUT                                 
     0    -59.3185931     23  1.800                                             
     0     -3.7290822     23  2.300                                             
     1    -35.7012045     23  2.300                                             
     1     -1.3605826     23  2.300                                             
     2     -1.9156920     23  2.300                                             
     2     -0.0236318     23  2.300                                             
     3     -1.3605826     23  2.300                                             
  local pseudopotential read in
  partial core-charges read in
  partial kinetic energy density read in
  atomic valenz-charges read in
  non local Contribution for L=           0  read in
    real space projection operators read in
  non local Contribution for L=           0  read in
    real space projection operators read in
  non local Contribution for L=           1  read in
    real space projection operators read in
  non local Contribution for L=           1  read in
    real space projection operators read in
  non local Contribution for L=           2  read in
    real space projection operators read in
  non local Contribution for L=           2  read in
    real space projection operators read in
    PAW grid and wavefunctions read in
 
   number of l-projection  operators is LMAX  =           6
   number of lm-projection operators is LMMAX =          18
 
  PAW_PBE Ti_sv 26Sep2005               :
 energy of atom  1       EATOM=-1588.0892
 kinetic energy error for atom=    0.0034 (will be added to EATOM!!)
 
 
 POSCAR: Ti                                      
  positions in cartesian coordinates
  No initial velocities read in
 exchange correlation table for  LEXCH =        8
   RHO(1)=    0.500       N(1)  =     2000
   RHO(2)=  100.500       N(2)  =     4000
 


--------------------------------------------------------------------------------------------------------


 ion  position               nearest neighbor table
   1  0.000  0.000  0.000-
 
  LATTYP: Found a body centered cubic cell.
 ALAT       =     3.2818964973
  
  Lattice vectors:
  
 A1 = (  -1.6409482487,   1.6409482487,   1.6409482487)
 A2 = (   1.6409482487,  -1.6409482487,   1.6409482487)
 A3 = (   1.6409482487,   1.6409482487,  -1.6409482487)


Analysis of symmetry for initial positions (statically):
=====================================================================
 Subroutine PRICEL returns:
 Original cell was already a primitive cell.
 

 Routine SETGRP: Setting up the symmetry group for a 
 body centered cubic supercell.


 Subroutine GETGRP returns: Found 48 space group operations
 (whereof 48 operations were pure point group operations)
 out of a pool of 48 trial point group operations.


The static configuration has the point symmetry O_h .


Analysis of symmetry for dynamics (positions and initial velocities):
=====================================================================
 Subroutine PRICEL returns:
 Original cell was already a primitive cell.
 

 Routine SETGRP: Setting up the symmetry group for a 
 body centered cubic supercell.


 Subroutine GETGRP returns: Found 48 space group operations
 (whereof 48 operations were pure point group operations)
 out of a pool of 48 trial point group operations.


The dynamic configuration has the point symmetry O_h .


 Subroutine INISYM returns: Found 48 space group operations
 (whereof 48 operations are pure point group operations),
 and found     1 'primitive' translations

 
 

Automatic generation of k-mesh.
 generate k-points for:   28   28   28
Space group operators:
 irot       det(A)        alpha          n_x          n_y          n_z        tau_x        tau_y        tau_z
    1     1.000000     0.000000     1.000000     0.000000     0.000000     0.000000     0.000000     0.000000
    2    -1.000000     0.000000     1.000000     0.000000     0.000000     0.000000     0.000000     0.000000
    3     1.000000   120.000000    -0.577350    -0.577350    -0.577350     0.000000     0.000000     0.000000
    4    -1.000000   120.000000    -0.577350    -0.577350    -0.577350     0.000000     0.000000     0.000000
    5     1.000000   120.000000     0.577350     0.577350     0.577350     0.000000     0.000000     0.000000
    6    -1.000000   120.000000     0.577350     0.577350     0.577350     0.000000     0.000000     0.000000
    7     1.000000    90.000000     0.000000     0.000000    -1.000000     0.000000     0.000000     0.000000
    8    -1.000000    90.000000     0.000000     0.000000    -1.000000     0.000000     0.000000     0.000000
    9     1.000000   180.000000     0.000000     0.707107     0.707107     0.000000     0.000000     0.000000
   10    -1.000000   180.000000     0.000000     0.707107     0.707107     0.000000     0.000000     0.000000
   11     1.000000    90.000000     0.000000     1.000000     0.000000     0.000000     0.000000     0.000000
   12    -1.000000    90.000000     0.000000     1.000000     0.000000     0.000000     0.000000     0.000000
   13     1.000000   180.000000     0.000000     0.000000     1.000000     0.000000     0.000000     0.000000
   14    -1.000000   180.000000     0.000000     0.000000     1.000000     0.000000     0.000000     0.000000
   15     1.000000   120.000000    -0.577350     0.577350     0.577350     0.000000     0.000000     0.000000
   16    -1.000000   120.000000    -0.577350     0.577350     0.577350     0.000000     0.000000     0.000000
   17     1.000000   120.000000    -0.577350     0.577350    -0.577350     0.000000     0.000000     0.000000
   18    -1.000000   120.000000    -0.577350     0.577350    -0.577350     0.000000     0.000000     0.000000
   19     1.000000    90.000000     0.000000     0.000000     1.000000     0.000000     0.000000     0.000000
   20    -1.000000    90.000000     0.000000     0.000000     1.000000     0.000000     0.000000     0.000000
   21     1.000000    90.000000    -1.000000     0.000000     0.000000     0.000000     0.000000     0.000000
   22    -1.000000    90.000000    -1.000000     0.000000     0.000000     0.000000     0.000000     0.000000
   23     1.000000   180.000000     0.707107     0.000000     0.707107     0.000000     0.000000     0.000000
   24    -1.000000   180.000000     0.707107     0.000000     0.707107     0.000000     0.000000     0.000000
   25     1.000000   120.000000     0.577350    -0.577350     0.577350     0.000000     0.000000     0.000000
   26    -1.000000   120.000000     0.577350    -0.577350     0.577350     0.000000     0.000000     0.000000
   27     1.000000   120.000000    -0.577350    -0.577350     0.577350     0.000000     0.000000     0.000000
   28    -1.000000   120.000000    -0.577350    -0.577350     0.577350     0.000000     0.000000     0.000000
   29     1.000000   180.000000     1.000000     0.000000     0.000000     0.000000     0.000000     0.000000
   30    -1.000000   180.000000     1.000000     0.000000     0.000000     0.000000     0.000000     0.000000
   31     1.000000    90.000000     0.000000    -1.000000     0.000000     0.000000     0.000000     0.000000
   32    -1.000000    90.000000     0.000000    -1.000000     0.000000     0.000000     0.000000     0.000000
   33     1.000000   180.000000     0.707107     0.707107     0.000000     0.000000     0.000000     0.000000
   34    -1.000000   180.000000     0.707107     0.707107     0.000000     0.000000     0.000000     0.000000
   35     1.000000    90.000000     1.000000     0.000000     0.000000     0.000000     0.000000     0.000000
   36    -1.000000    90.000000     1.000000     0.000000     0.000000     0.000000     0.000000     0.000000
   37     1.000000   120.000000     0.577350    -0.577350    -0.577350     0.000000     0.000000     0.000000
   38    -1.000000   120.000000     0.577350    -0.577350    -0.577350     0.000000     0.000000     0.000000
   39     1.000000   180.000000     0.000000     1.000000     0.000000     0.000000     0.000000     0.000000
   40    -1.000000   180.000000     0.000000     1.000000     0.000000     0.000000     0.000000     0.000000
   41     1.000000   120.000000     0.577350     0.577350    -0.577350     0.000000     0.000000     0.000000
   42    -1.000000   120.000000     0.577350     0.577350    -0.577350     0.000000     0.000000     0.000000
   43     1.000000   180.000000     0.000000    -0.707107     0.707107     0.000000     0.000000     0.000000
   44    -1.000000   180.000000     0.000000    -0.707107     0.707107     0.000000     0.000000     0.000000
   45     1.000000   180.000000     0.707107    -0.707107     0.000000     0.000000     0.000000     0.000000
   46    -1.000000   180.000000     0.707107    -0.707107     0.000000     0.000000     0.000000     0.000000
   47     1.000000   180.000000     0.707107     0.000000    -0.707107     0.000000     0.000000     0.000000
   48    -1.000000   180.000000     0.707107     0.000000    -0.707107     0.000000     0.000000     0.000000
 
 Subroutine IBZKPT returns following result:
 ===========================================
 
 Found    624 irreducible k-points:
 
 Following reciprocal coordinates:
            Coordinates               Weight
  0.000000  0.000000  0.000000      1.000000
  0.035714  0.000000  0.000000     12.000000
  0.071429  0.000000  0.000000     12.000000
  0.107143  0.000000  0.000000     12.000000
  0.142857  0.000000  0.000000     12.000000
  0.178571  0.000000  0.000000     12.000000
  0.214286  0.000000  0.000000     12.000000
  0.250000  0.000000  0.000000     12.000000
  0.285714  0.000000  0.000000     12.000000
  0.321429  0.000000  0.000000     12.000000
  0.357143  0.000000  0.000000     12.000000
  0.392857  0.000000  0.000000     12.000000
  0.428571  0.000000  0.000000     12.000000
  0.464286  0.000000  0.000000     12.000000
  0.500000  0.000000  0.000000      6.000000
  0.035714  0.035714  0.000000     24.000000
  0.071429  0.035714  0.000000     48.000000
  0.107143  0.035714  0.000000     48.000000
  0.142857  0.035714  0.000000     48.000000
  0.178571  0.035714 -0.000000     48.000000
  0.214286  0.035714  0.000000     48.000000
  0.250000  0.035714  0.000000     48.000000
  0.285714  0.035714 -0.000000     48.000000
  0.321429  0.035714  0.000000     48.000000
  0.357143  0.035714  0.000000     48.000000
  0.392857  0.035714 -0.000000     48.000000
  0.428571  0.035714  0.000000     48.000000
  0.464286  0.035714  0.000000     48.000000
  0.071429  0.071429  0.000000     24.000000
  0.107143  0.071429 -0.000000     48.000000
  0.142857  0.071429  0.000000     48.000000
  0.178571  0.071429  0.000000     48.000000
  0.214286  0.071429  0.000000     48.000000
  0.250000  0.071429 -0.000000     48.000000
  0.285714  0.071429 -0.000000     48.000000
  0.321429  0.071429  0.000000     48.000000
  0.357143  0.071429 -0.000000     48.000000
  0.392857  0.071429  0.000000     48.000000
  0.428571  0.071429  0.000000     48.000000
  0.464286  0.071429  0.000000     24.000000
  0.107143  0.107143  0.000000     24.000000
  0.142857  0.107143  0.000000     48.000000
  0.178571  0.107143  0.000000     48.000000
  0.214286  0.107143  0.000000     48.000000
  0.250000  0.107143 -0.000000     48.000000
  0.285714  0.107143 -0.000000     48.000000
  0.321429  0.107143 -0.000000     48.000000
  0.357143  0.107143  0.000000     48.000000
  0.392857  0.107143  0.000000     48.000000
  0.428571  0.107143  0.000000     48.000000
  0.142857  0.142857  0.000000     24.000000
  0.178571  0.142857  0.000000     48.000000
  0.214286  0.142857  0.000000     48.000000
  0.250000  0.142857 -0.000000     48.000000
  0.285714  0.142857 -0.000000     48.000000
  0.321429  0.142857  0.000000     48.000000
  0.357143  0.142857  0.000000     48.000000
  0.392857  0.142857  0.000000     48.000000
  0.428571  0.142857  0.000000     24.000000
  0.178571  0.178571  0.000000     24.000000
  0.214286  0.178571  0.000000     48.000000
  0.250000  0.178571 -0.000000     48.000000
  0.285714  0.178571  0.000000     48.000000
  0.321429  0.178571  0.000000     48.000000
  0.357143  0.178571  0.000000     48.000000
  0.392857  0.178571  0.000000     48.000000
  0.214286  0.214286  0.000000     24.000000
  0.250000  0.214286  0.000000     48.000000
  0.285714  0.214286  0.000000     48.000000
  0.321429  0.214286 -0.000000     48.000000
  0.357143  0.214286  0.000000     48.000000
  0.392857  0.214286  0.000000     24.000000
  0.250000  0.250000  0.000000     24.000000
  0.285714  0.250000 -0.000000     48.000000
  0.321429  0.250000  0.000000     48.000000
  0.357143  0.250000  0.000000     48.000000
  0.285714  0.285714  0.000000     24.000000
  0.321429  0.285714  0.000000     48.000000
  0.357143  0.285714 -0.000000     24.000000
  0.321429  0.321429  0.000000     24.000000
  0.035714  0.035714  0.035714      8.000000
  0.071429  0.035714  0.035714     24.000000
  0.107143  0.035714  0.035714     24.000000
  0.142857  0.035714  0.035714     24.000000
  0.178571  0.035714  0.035714     24.000000
  0.214286  0.035714  0.035714     24.000000
  0.250000  0.035714  0.035714     24.000000
  0.285714  0.035714  0.035714     24.000000
  0.321429  0.035714  0.035714     24.000000
  0.357143  0.035714  0.035714     24.000000
  0.392857  0.035714  0.035714     24.000000
  0.428571  0.035714  0.035714     24.000000
  0.464286  0.035714  0.035714     12.000000
 -0.035714  0.035714  0.035714      6.000000
  0.071429  0.071429  0.035714     24.000000
  0.107143  0.071429  0.035714     48.000000
  0.142857  0.071429  0.035714     48.000000
  0.178571  0.071429  0.035714     48.000000
  0.214286  0.071429  0.035714     48.000000
  0.250000  0.071429  0.035714     48.000000
  0.285714  0.071429  0.035714     48.000000
  0.321429  0.071429  0.035714     48.000000
  0.357143  0.071429  0.035714     48.000000
  0.392857  0.071429  0.035714     48.000000
  0.428571  0.071429  0.035714     48.000000
 -0.071429  0.071429  0.035714     24.000000
  0.107143  0.107143  0.035714     24.000000
  0.142857  0.107143  0.035714     48.000000
  0.178571  0.107143  0.035714     48.000000
  0.214286  0.107143  0.035714     48.000000
  0.250000  0.107143  0.035714     48.000000
  0.285714  0.107143  0.035714     48.000000
  0.321429  0.107143  0.035714     48.000000
  0.357143  0.107143  0.035714     48.000000
  0.392857  0.107143  0.035714     48.000000
  0.428571  0.107143  0.035714     24.000000
 -0.107143  0.107143  0.035714     24.000000
 -0.071429  0.107143  0.035714     24.000000
  0.142857  0.142857  0.035714     24.000000
  0.178571  0.142857  0.035714     48.000000
  0.214286  0.142857  0.035714     48.000000
  0.250000  0.142857  0.035714     48.000000
  0.285714  0.142857  0.035714     48.000000
  0.321429  0.142857  0.035714     48.000000
  0.357143  0.142857  0.035714     48.000000
  0.392857  0.142857  0.035714     48.000000
 -0.142857  0.142857  0.035714     24.000000
 -0.107143  0.142857  0.035714     48.000000
  0.178571  0.178571  0.035714     24.000000
  0.214286  0.178571  0.035714     48.000000
  0.250000  0.178571  0.035714     48.000000
  0.285714  0.178571  0.035714     48.000000
  0.321429  0.178571  0.035714     48.000000
  0.357143  0.178571  0.035714     48.000000
  0.392857  0.178571  0.035714     24.000000
 -0.178571  0.178571  0.035714     24.000000
 -0.142857  0.178571  0.035714     48.000000
 -0.107143  0.178571  0.035714     24.000000
  0.214286  0.214286  0.035714     24.000000
  0.250000  0.214286  0.035714     48.000000
  0.285714  0.214286  0.035714     48.000000
  0.321429  0.214286  0.035714     48.000000
  0.357143  0.214286  0.035714     48.000000
 -0.214286  0.214286  0.035714     24.000000
 -0.178571  0.214286  0.035714     48.000000
 -0.142857  0.214286  0.035714     48.000000
  0.250000  0.250000  0.035714     24.000000
  0.285714  0.250000  0.035714     48.000000
  0.321429  0.250000  0.035714     48.000000
  0.357143  0.250000  0.035714     24.000000
 -0.250000  0.250000  0.035714     24.000000
 -0.214286  0.250000  0.035714     48.000000
 -0.178571  0.250000  0.035714     48.000000
 -0.142857  0.250000  0.035714     24.000000
  0.285714  0.285714  0.035714     24.000000
  0.321429  0.285714  0.035714     48.000000
 -0.285714  0.285714  0.035714     24.000000
 -0.250000  0.285714  0.035714     48.000000
 -0.214286  0.285714  0.035714     48.000000
 -0.178571  0.285714  0.035714     48.000000
  0.321429  0.321429  0.035714      8.000000
 -0.321429  0.321429  0.035714     24.000000
 -0.285714  0.321429  0.035714     48.000000
 -0.250000  0.321429  0.035714     48.000000
 -0.214286  0.321429  0.035714     48.000000
 -0.178571  0.321429  0.035714     24.000000
 -0.357143  0.357143  0.035714     24.000000
 -0.321429  0.357143  0.035714     48.000000
 -0.285714  0.357143  0.035714     48.000000
 -0.250000  0.357143  0.035714     48.000000
 -0.214286  0.357143  0.035714     48.000000
 -0.392857  0.392857  0.035714     24.000000
 -0.357143  0.392857  0.035714     48.000000
 -0.321429  0.392857  0.035714     48.000000
 -0.285714  0.392857  0.035714     48.000000
 -0.250000  0.392857  0.035714     48.000000
 -0.214286  0.392857  0.035714     24.000000
 -0.428571  0.428571  0.035714     24.000000
 -0.392857  0.428571  0.035714     48.000000
 -0.357143  0.428571  0.035714     48.000000
 -0.321429  0.428571  0.035714     48.000000
 -0.285714  0.428571  0.035714     48.000000
 -0.250000  0.428571  0.035714     48.000000
 -0.464286  0.464286  0.035714     24.000000
 -0.428571  0.464286  0.035714     48.000000
 -0.392857  0.464286  0.035714     48.000000
 -0.357143  0.464286  0.035714     48.000000
 -0.321429  0.464286  0.035714     48.000000
 -0.285714  0.464286  0.035714     48.000000
 -0.250000  0.464286  0.035714     24.000000
  0.500000  0.500000  0.035714     12.000000
 -0.464286  0.500000  0.035714     48.000000
 -0.428571  0.500000  0.035714     48.000000
 -0.392857  0.500000  0.035714     48.000000
 -0.357143  0.500000  0.035714     48.000000
 -0.321429  0.500000  0.035714     48.000000
 -0.285714  0.500000  0.035714     48.000000
 -0.464286 -0.464286  0.035714     24.000000
 -0.428571 -0.464286  0.035714     48.000000
 -0.392857 -0.464286  0.035714     48.000000
 -0.357143 -0.464286  0.035714     48.000000
 -0.321429 -0.464286  0.035714     48.000000
 -0.285714 -0.464286  0.035714     24.000000
 -0.428571 -0.428571  0.035714     24.000000
 -0.392857 -0.428571  0.035714     48.000000
 -0.357143 -0.428571  0.035714     48.000000
 -0.321429 -0.428571  0.035714     48.000000
 -0.392857 -0.392857  0.035714     24.000000
 -0.357143 -0.392857  0.035714     48.000000
 -0.321429 -0.392857  0.035714     24.000000
 -0.357143 -0.357143  0.035714     24.000000
  0.071429  0.071429  0.071429      8.000000
  0.107143  0.071429  0.071429     24.000000
  0.142857  0.071429  0.071429     24.000000
  0.178571  0.071429  0.071429     24.000000
  0.214286  0.071429  0.071429     24.000000
  0.250000  0.071429  0.071429     24.000000
  0.285714  0.071429  0.071429     24.000000
  0.321429  0.071429  0.071429     24.000000
  0.357143  0.071429  0.071429     24.000000
  0.392857  0.071429  0.071429     24.000000
  0.428571  0.071429  0.071429     12.000000
 -0.071429  0.071429  0.071429      6.000000
  0.107143  0.107143  0.071429     24.000000
  0.142857  0.107143  0.071429     48.000000
  0.178571  0.107143  0.071429     48.000000
  0.214286  0.107143  0.071429     48.000000
  0.250000  0.107143  0.071429     48.000000
  0.285714  0.107143  0.071429     48.000000
  0.321429  0.107143  0.071429     48.000000
  0.357143  0.107143  0.071429     48.000000
  0.392857  0.107143  0.071429     48.000000
 -0.107143  0.107143  0.071429     24.000000
  0.142857  0.142857  0.071429     24.000000
  0.178571  0.142857  0.071429     48.000000
  0.214286  0.142857  0.071429     48.000000
  0.250000  0.142857  0.071429     48.000000
  0.285714  0.142857  0.071429     48.000000
  0.321429  0.142857  0.071429     48.000000
  0.357143  0.142857  0.071429     48.000000
  0.392857  0.142857  0.071429     24.000000
 -0.142857  0.142857  0.071429     24.000000
 -0.107143  0.142857  0.071429     24.000000
  0.178571  0.178571  0.071429     24.000000
  0.214286  0.178571  0.071429     48.000000
  0.250000  0.178571  0.071429     48.000000
  0.285714  0.178571  0.071429     48.000000
  0.321429  0.178571  0.071429     48.000000
  0.357143  0.178571  0.071429     48.000000
 -0.178571  0.178571  0.071429     24.000000
 -0.142857  0.178571  0.071429     48.000000
  0.214286  0.214286  0.071429     24.000000
  0.250000  0.214286  0.071429     48.000000
  0.285714  0.214286  0.071429     48.000000
  0.321429  0.214286  0.071429     48.000000
  0.357143  0.214286  0.071429     24.000000
 -0.214286  0.214286  0.071429     24.000000
 -0.178571  0.214286  0.071429     48.000000
 -0.142857  0.214286  0.071429     24.000000
  0.250000  0.250000  0.071429     24.000000
  0.285714  0.250000  0.071429     48.000000
  0.321429  0.250000  0.071429     48.000000
 -0.250000  0.250000  0.071429     24.000000
 -0.214286  0.250000  0.071429     48.000000
 -0.178571  0.250000  0.071429     48.000000
  0.285714  0.285714  0.071429     24.000000
  0.321429  0.285714  0.071429     24.000000
 -0.285714  0.285714  0.071429     24.000000
 -0.250000  0.285714  0.071429     48.000000
 -0.214286  0.285714  0.071429     48.000000
 -0.178571  0.285714  0.071429     24.000000
 -0.321429  0.321429  0.071429     24.000000
 -0.285714  0.321429  0.071429     48.000000
 -0.250000  0.321429  0.071429     48.000000
 -0.214286  0.321429  0.071429     48.000000
 -0.357143  0.357143  0.071429     24.000000
 -0.321429  0.357143  0.071429     48.000000
 -0.285714  0.357143  0.071429     48.000000
 -0.250000  0.357143  0.071429     48.000000
 -0.214286  0.357143  0.071429     24.000000
 -0.392857  0.392857  0.071429     24.000000
 -0.357143  0.392857  0.071429     48.000000
 -0.321429  0.392857  0.071429     48.000000
 -0.285714  0.392857  0.071429     48.000000
 -0.250000  0.392857  0.071429     48.000000
 -0.428571  0.428571  0.071429     24.000000
 -0.392857  0.428571  0.071429     48.000000
 -0.357143  0.428571  0.071429     48.000000
 -0.321429  0.428571  0.071429     48.000000
 -0.285714  0.428571  0.071429     48.000000
 -0.250000  0.428571  0.071429     24.000000
 -0.464286  0.464286  0.071429     24.000000
 -0.428571  0.464286  0.071429     48.000000
 -0.392857  0.464286  0.071429     48.000000
 -0.357143  0.464286  0.071429     48.000000
 -0.321429  0.464286  0.071429     48.000000
 -0.285714  0.464286  0.071429     48.000000
  0.500000  0.500000  0.071429     12.000000
 -0.464286  0.500000  0.071429     48.000000
 -0.428571  0.500000  0.071429     48.000000
 -0.392857  0.500000  0.071429     48.000000
 -0.357143  0.500000  0.071429     48.000000
 -0.321429  0.500000  0.071429     48.000000
 -0.285714  0.500000  0.071429     24.000000
 -0.464286 -0.464286  0.071429     24.000000
 -0.428571 -0.464286  0.071429     48.000000
 -0.392857 -0.464286  0.071429     48.000000
 -0.357143 -0.464286  0.071429     48.000000
 -0.321429 -0.464286  0.071429     48.000000
 -0.428571 -0.428571  0.071429     24.000000
 -0.392857 -0.428571  0.071429     48.000000
 -0.357143 -0.428571  0.071429     48.000000
 -0.321429 -0.428571  0.071429     24.000000
 -0.392857 -0.392857  0.071429     24.000000
 -0.357143 -0.392857  0.071429     48.000000
 -0.357143 -0.357143  0.071429      8.000000
  0.107143  0.107143  0.107143      8.000000
  0.142857  0.107143  0.107143     24.000000
  0.178571  0.107143  0.107143     24.000000
  0.214286  0.107143  0.107143     24.000000
  0.250000  0.107143  0.107143     24.000000
  0.285714  0.107143  0.107143     24.000000
  0.321429  0.107143  0.107143     24.000000
  0.357143  0.107143  0.107143     24.000000
  0.392857  0.107143  0.107143     12.000000
 -0.107143  0.107143  0.107143      6.000000
  0.142857  0.142857  0.107143     24.000000
  0.178571  0.142857  0.107143     48.000000
  0.214286  0.142857  0.107143     48.000000
  0.250000  0.142857  0.107143     48.000000
  0.285714  0.142857  0.107143     48.000000
  0.321429  0.142857  0.107143     48.000000
  0.357143  0.142857  0.107143     48.000000
 -0.142857  0.142857  0.107143     24.000000
  0.178571  0.178571  0.107143     24.000000
  0.214286  0.178571  0.107143     48.000000
  0.250000  0.178571  0.107143     48.000000
  0.285714  0.178571  0.107143     48.000000
  0.321429  0.178571  0.107143     48.000000
  0.357143  0.178571  0.107143     24.000000
 -0.178571  0.178571  0.107143     24.000000
 -0.142857  0.178571  0.107143     24.000000
  0.214286  0.214286  0.107143     24.000000
  0.250000  0.214286  0.107143     48.000000
  0.285714  0.214286  0.107143     48.000000
  0.321429  0.214286  0.107143     48.000000
 -0.214286  0.214286  0.107143     24.000000
 -0.178571  0.214286  0.107143     48.000000
  0.250000  0.250000  0.107143     24.000000
  0.285714  0.250000  0.107143     48.000000
  0.321429  0.250000  0.107143     24.000000
 -0.250000  0.250000  0.107143     24.000000
 -0.214286  0.250000  0.107143     48.000000
 -0.178571  0.250000  0.107143     24.000000
  0.285714  0.285714  0.107143     24.000000
 -0.285714  0.285714  0.107143     24.000000
 -0.250000  0.285714  0.107143     48.000000
 -0.214286  0.285714  0.107143     48.000000
 -0.321429  0.321429  0.107143     24.000000
 -0.285714  0.321429  0.107143     48.000000
 -0.250000  0.321429  0.107143     48.000000
 -0.214286  0.321429  0.107143     24.000000
 -0.357143  0.357143  0.107143     24.000000
 -0.321429  0.357143  0.107143     48.000000
 -0.285714  0.357143  0.107143     48.000000
 -0.250000  0.357143  0.107143     48.000000
 -0.392857  0.392857  0.107143     24.000000
 -0.357143  0.392857  0.107143     48.000000
 -0.321429  0.392857  0.107143     48.000000
 -0.285714  0.392857  0.107143     48.000000
 -0.250000  0.392857  0.107143     24.000000
 -0.428571  0.428571  0.107143     24.000000
 -0.392857  0.428571  0.107143     48.000000
 -0.357143  0.428571  0.107143     48.000000
 -0.321429  0.428571  0.107143     48.000000
 -0.285714  0.428571  0.107143     48.000000
 -0.464286  0.464286  0.107143     24.000000
 -0.428571  0.464286  0.107143     48.000000
 -0.392857  0.464286  0.107143     48.000000
 -0.357143  0.464286  0.107143     48.000000
 -0.321429  0.464286  0.107143     48.000000
 -0.285714  0.464286  0.107143     24.000000
  0.500000  0.500000  0.107143     12.000000
 -0.464286  0.500000  0.107143     48.000000
 -0.428571  0.500000  0.107143     48.000000
 -0.392857  0.500000  0.107143     48.000000
 -0.357143  0.500000  0.107143     48.000000
 -0.321429  0.500000  0.107143     48.000000
 -0.464286 -0.464286  0.107143     24.000000
 -0.428571 -0.464286  0.107143     48.000000
 -0.392857 -0.464286  0.107143     48.000000
 -0.357143 -0.464286  0.107143     48.000000
 -0.321429 -0.464286  0.107143     24.000000
 -0.428571 -0.428571  0.107143     24.000000
 -0.392857 -0.428571  0.107143     48.000000
 -0.357143 -0.428571  0.107143     48.000000
 -0.392857 -0.392857  0.107143     24.000000
 -0.357143 -0.392857  0.107143     24.000000
  0.142857  0.142857  0.142857      8.000000
  0.178571  0.142857  0.142857     24.000000
  0.214286  0.142857  0.142857     24.000000
  0.250000  0.142857  0.142857     24.000000
  0.285714  0.142857  0.142857     24.000000
  0.321429  0.142857  0.142857     24.000000
  0.357143  0.142857  0.142857     12.000000
 -0.142857  0.142857  0.142857      6.000000
  0.178571  0.178571  0.142857     24.000000
  0.214286  0.178571  0.142857     48.000000
  0.250000  0.178571  0.142857     48.000000
  0.285714  0.178571  0.142857     48.000000
  0.321429  0.178571  0.142857     48.000000
 -0.178571  0.178571  0.142857     24.000000
  0.214286  0.214286  0.142857     24.000000
  0.250000  0.214286  0.142857     48.000000
  0.285714  0.214286  0.142857     48.000000
  0.321429  0.214286  0.142857     24.000000
 -0.214286  0.214286  0.142857     24.000000
 -0.178571  0.214286  0.142857     24.000000
  0.250000  0.250000  0.142857     24.000000
  0.285714  0.250000  0.142857     48.000000
 -0.250000  0.250000  0.142857     24.000000
 -0.214286  0.250000  0.142857     48.000000
  0.285714  0.285714  0.142857      8.000000
 -0.285714  0.285714  0.142857     24.000000
 -0.250000  0.285714  0.142857     48.000000
 -0.214286  0.285714  0.142857     24.000000
 -0.321429  0.321429  0.142857     24.000000
 -0.285714  0.321429  0.142857     48.000000
 -0.250000  0.321429  0.142857     48.000000
 -0.357143  0.357143  0.142857     24.000000
 -0.321429  0.357143  0.142857     48.000000
 -0.285714  0.357143  0.142857     48.000000
 -0.250000  0.357143  0.142857     24.000000
 -0.392857  0.392857  0.142857     24.000000
 -0.357143  0.392857  0.142857     48.000000
 -0.321429  0.392857  0.142857     48.000000
 -0.285714  0.392857  0.142857     48.000000
 -0.428571  0.428571  0.142857     24.000000
 -0.392857  0.428571  0.142857     48.000000
 -0.357143  0.428571  0.142857     48.000000
 -0.321429  0.428571  0.142857     48.000000
 -0.285714  0.428571  0.142857     24.000000
 -0.464286  0.464286  0.142857     24.000000
 -0.428571  0.464286  0.142857     48.000000
 -0.392857  0.464286  0.142857     48.000000
 -0.357143  0.464286  0.142857     48.000000
 -0.321429  0.464286  0.142857     48.000000
  0.500000  0.500000  0.142857     12.000000
 -0.464286  0.500000  0.142857     48.000000
 -0.428571  0.500000  0.142857     48.000000
 -0.392857  0.500000  0.142857     48.000000
 -0.357143  0.500000  0.142857     48.000000
 -0.321429  0.500000  0.142857     24.000000
 -0.464286 -0.464286  0.142857     24.000000
 -0.428571 -0.464286  0.142857     48.000000
 -0.392857 -0.464286  0.142857     48.000000
 -0.357143 -0.464286  0.142857     48.000000
 -0.428571 -0.428571  0.142857     24.000000
 -0.392857 -0.428571  0.142857     48.000000
 -0.357143 -0.428571  0.142857     24.000000
 -0.392857 -0.392857  0.142857     24.000000
  0.178571  0.178571  0.178571      8.000000
  0.214286  0.178571  0.178571     24.000000
  0.250000  0.178571  0.178571     24.000000
  0.285714  0.178571  0.178571     24.000000
  0.321429  0.178571  0.178571     12.000000
 -0.178571  0.178571  0.178571      6.000000
  0.214286  0.214286  0.178571     24.000000
  0.250000  0.214286  0.178571     48.000000
  0.285714  0.214286  0.178571     48.000000
 -0.214286  0.214286  0.178571     24.000000
  0.250000  0.250000  0.178571     24.000000
  0.285714  0.250000  0.178571     24.000000
 -0.250000  0.250000  0.178571     24.000000
 -0.214286  0.250000  0.178571     24.000000
 -0.285714  0.285714  0.178571     24.000000
 -0.250000  0.285714  0.178571     48.000000
 -0.321429  0.321429  0.178571     24.000000
 -0.285714  0.321429  0.178571     48.000000
 -0.250000  0.321429  0.178571     24.000000
 -0.357143  0.357143  0.178571     24.000000
 -0.321429  0.357143  0.178571     48.000000
 -0.285714  0.357143  0.178571     48.000000
 -0.392857  0.392857  0.178571     24.000000
 -0.357143  0.392857  0.178571     48.000000
 -0.321429  0.392857  0.178571     48.000000
 -0.285714  0.392857  0.178571     24.000000
 -0.428571  0.428571  0.178571     24.000000
 -0.392857  0.428571  0.178571     48.000000
 -0.357143  0.428571  0.178571     48.000000
 -0.321429  0.428571  0.178571     48.000000
 -0.464286  0.464286  0.178571     24.000000
 -0.428571  0.464286  0.178571     48.000000
 -0.392857  0.464286  0.178571     48.000000
 -0.357143  0.464286  0.178571     48.000000
 -0.321429  0.464286  0.178571     24.000000
  0.500000  0.500000  0.178571     12.000000
 -0.464286  0.500000  0.178571     48.000000
 -0.428571  0.500000  0.178571     48.000000
 -0.392857  0.500000  0.178571     48.000000
 -0.357143  0.500000  0.178571     48.000000
 -0.464286 -0.464286  0.178571     24.000000
 -0.428571 -0.464286  0.178571     48.000000
 -0.392857 -0.464286  0.178571     48.000000
 -0.357143 -0.464286  0.178571     24.000000
 -0.428571 -0.428571  0.178571     24.000000
 -0.392857 -0.428571  0.178571     48.000000
 -0.392857 -0.392857  0.178571      8.000000
  0.214286  0.214286  0.214286      8.000000
  0.250000  0.214286  0.214286     24.000000
  0.285714  0.214286  0.214286     12.000000
 -0.214286  0.214286  0.214286      6.000000
  0.250000  0.250000  0.214286     24.000000
 -0.250000  0.250000  0.214286     24.000000
 -0.285714  0.285714  0.214286     24.000000
 -0.250000  0.285714  0.214286     24.000000
 -0.321429  0.321429  0.214286     24.000000
 -0.285714  0.321429  0.214286     48.000000
 -0.357143  0.357143  0.214286     24.000000
 -0.321429  0.357143  0.214286     48.000000
 -0.285714  0.357143  0.214286     24.000000
 -0.392857  0.392857  0.214286     24.000000
 -0.357143  0.392857  0.214286     48.000000
 -0.321429  0.392857  0.214286     48.000000
 -0.428571  0.428571  0.214286     24.000000
 -0.392857  0.428571  0.214286     48.000000
 -0.357143  0.428571  0.214286     48.000000
 -0.321429  0.428571  0.214286     24.000000
 -0.464286  0.464286  0.214286     24.000000
 -0.428571  0.464286  0.214286     48.000000
 -0.392857  0.464286  0.214286     48.000000
 -0.357143  0.464286  0.214286     48.000000
  0.500000  0.500000  0.214286     12.000000
 -0.464286  0.500000  0.214286     48.000000
 -0.428571  0.500000  0.214286     48.000000
 -0.392857  0.500000  0.214286     48.000000
 -0.357143  0.500000  0.214286     24.000000
 -0.464286 -0.464286  0.214286     24.000000
 -0.428571 -0.464286  0.214286     48.000000
 -0.392857 -0.464286  0.214286     48.000000
 -0.428571 -0.428571  0.214286     24.000000
 -0.392857 -0.428571  0.214286     24.000000
  0.250000  0.250000  0.250000      2.000000
 -0.250000  0.250000  0.250000      6.000000
 -0.285714  0.285714  0.250000     24.000000
 -0.321429  0.321429  0.250000     24.000000
 -0.285714  0.321429  0.250000     24.000000
 -0.357143  0.357143  0.250000     24.000000
 -0.321429  0.357143  0.250000     48.000000
 -0.392857  0.392857  0.250000     24.000000
 -0.357143  0.392857  0.250000     48.000000
 -0.321429  0.392857  0.250000     24.000000
 -0.428571  0.428571  0.250000     24.000000
 -0.392857  0.428571  0.250000     48.000000
 -0.357143  0.428571  0.250000     48.000000
 -0.464286  0.464286  0.250000     24.000000
 -0.428571  0.464286  0.250000     48.000000
 -0.392857  0.464286  0.250000     48.000000
 -0.357143  0.464286  0.250000     24.000000
  0.500000  0.500000  0.250000     12.000000
 -0.464286  0.500000  0.250000     48.000000
 -0.428571  0.500000  0.250000     48.000000
 -0.392857  0.500000  0.250000     48.000000
 -0.464286 -0.464286  0.250000     24.000000
 -0.428571 -0.464286  0.250000     48.000000
 -0.392857 -0.464286  0.250000     24.000000
 -0.428571 -0.428571  0.250000     24.000000
 -0.285714  0.285714  0.285714      6.000000
 -0.321429  0.321429  0.285714     24.000000
 -0.357143  0.357143  0.285714     24.000000
 -0.321429  0.357143  0.285714     24.000000
 -0.392857  0.392857  0.285714     24.000000
 -0.357143  0.392857  0.285714     48.000000
 -0.428571  0.428571  0.285714     24.000000
 -0.392857  0.428571  0.285714     48.000000
 -0.357143  0.428571  0.285714     24.000000
 -0.464286  0.464286  0.285714     24.000000
 -0.428571  0.464286  0.285714     48.000000
 -0.392857  0.464286  0.285714     48.000000
  0.500000  0.500000  0.285714     12.000000
 -0.464286  0.500000  0.285714     48.000000
 -0.428571  0.500000  0.285714     48.000000
 -0.392857  0.500000  0.285714     24.000000
 -0.464286 -0.464286  0.285714     24.000000
 -0.428571 -0.464286  0.285714     48.000000
 -0.428571 -0.428571  0.285714      8.000000
 -0.321429  0.321429  0.321429      6.000000
 -0.357143  0.357143  0.321429     24.000000
 -0.392857  0.392857  0.321429     24.000000
 -0.357143  0.392857  0.321429     24.000000
 -0.428571  0.428571  0.321429     24.000000
 -0.392857  0.428571  0.321429     48.000000
 -0.464286  0.464286  0.321429     24.000000
 -0.428571  0.464286  0.321429     48.000000
 -0.392857  0.464286  0.321429     24.000000
  0.500000  0.500000  0.321429     12.000000
 -0.464286  0.500000  0.321429     48.000000
 -0.428571  0.500000  0.321429     48.000000
 -0.464286 -0.464286  0.321429     24.000000
 -0.428571 -0.464286  0.321429     24.000000
 -0.357143  0.357143  0.357143      6.000000
 -0.392857  0.392857  0.357143     24.000000
 -0.428571  0.428571  0.357143     24.000000
 -0.392857  0.428571  0.357143     24.000000
 -0.464286  0.464286  0.357143     24.000000
 -0.428571  0.464286  0.357143     48.000000
  0.500000  0.500000  0.357143     12.000000
 -0.464286  0.500000  0.357143     48.000000
 -0.428571  0.500000  0.357143     24.000000
 -0.464286 -0.464286  0.357143     24.000000
 -0.392857  0.392857  0.392857      6.000000
 -0.428571  0.428571  0.392857     24.000000
 -0.464286  0.464286  0.392857     24.000000
 -0.428571  0.464286  0.392857     24.000000
  0.500000  0.500000  0.392857     12.000000
 -0.464286  0.500000  0.392857     48.000000
 -0.464286 -0.464286  0.392857      8.000000
 -0.428571  0.428571  0.428571      6.000000
 -0.464286  0.464286  0.428571     24.000000
  0.500000  0.500000  0.428571     12.000000
 -0.464286  0.500000  0.428571     24.000000
 -0.464286  0.464286  0.464286      6.000000
  0.500000  0.500000  0.464286     12.000000
  0.500000  0.500000  0.500000      1.000000
 
 Following cartesian coordinates:
            Coordinates               Weight
  0.000000  0.000000  0.000000      1.000000
  0.000000  0.010882  0.010882     12.000000
  0.000000  0.021764  0.021764     12.000000
  0.000000  0.032647  0.032647     12.000000
  0.000000  0.043529  0.043529     12.000000
  0.000000  0.054411  0.054411     12.000000
  0.000000  0.065293  0.065293     12.000000
  0.000000  0.076175  0.076175     12.000000
  0.000000  0.087058  0.087058     12.000000
  0.000000  0.097940  0.097940     12.000000
  0.000000  0.108822  0.108822     12.000000
  0.000000  0.119704  0.119704     12.000000
  0.000000  0.130587  0.130587     12.000000
  0.000000  0.141469  0.141469     12.000000
  0.000000  0.152351  0.152351      6.000000
  0.010882  0.010882  0.021764     24.000000
  0.010882  0.021764  0.032647     48.000000
  0.010882  0.032647  0.043529     48.000000
  0.010882  0.043529  0.054411     48.000000
  0.010882  0.054411  0.065293     48.000000
  0.010882  0.065293  0.076175     48.000000
  0.010882  0.076175  0.087058     48.000000
  0.010882  0.087058  0.097940     48.000000
  0.010882  0.097940  0.108822     48.000000
  0.010882  0.108822  0.119704     48.000000
  0.010882  0.119704  0.130587     48.000000
  0.010882  0.130587  0.141469     48.000000
  0.010882  0.141469  0.152351     48.000000
  0.021764  0.021764  0.043529     24.000000
  0.021764  0.032647  0.054411     48.000000
  0.021764  0.043529  0.065293     48.000000
  0.021764  0.054411  0.076175     48.000000
  0.021764  0.065293  0.087058     48.000000
  0.021764  0.076175  0.097940     48.000000
  0.021764  0.087058  0.108822     48.000000
  0.021764  0.097940  0.119704     48.000000
  0.021764  0.108822  0.130587     48.000000
  0.021764  0.119704  0.141469     48.000000
  0.021764  0.130587  0.152351     48.000000
  0.021764  0.141469  0.163233     24.000000
  0.032647  0.032647  0.065293     24.000000
  0.032647  0.043529  0.076175     48.000000
  0.032647  0.054411  0.087058     48.000000
  0.032647  0.065293  0.097940     48.000000
  0.032647  0.076175  0.108822     48.000000
  0.032647  0.087058  0.119704     48.000000
  0.032647  0.097940  0.130587     48.000000
  0.032647  0.108822  0.141469     48.000000
  0.032647  0.119704  0.152351     48.000000
  0.032647  0.130587  0.163233     48.000000
  0.043529  0.043529  0.087058     24.000000
  0.043529  0.054411  0.097940     48.000000
  0.043529  0.065293  0.108822     48.000000
  0.043529  0.076175  0.119704     48.000000
  0.043529  0.087058  0.130587     48.000000
  0.043529  0.097940  0.141469     48.000000
  0.043529  0.108822  0.152351     48.000000
  0.043529  0.119704  0.163233     48.000000
  0.043529  0.130587  0.174115     24.000000
  0.054411  0.054411  0.108822     24.000000
  0.054411  0.065293  0.119704     48.000000
  0.054411  0.076175  0.130587     48.000000
  0.054411  0.087058  0.141469     48.000000
  0.054411  0.097940  0.152351     48.000000
  0.054411  0.108822  0.163233     48.000000
  0.054411  0.119704  0.174115     48.000000
  0.065293  0.065293  0.130587     24.000000
  0.065293  0.076175  0.141469     48.000000
  0.065293  0.087058  0.152351     48.000000
  0.065293  0.097940  0.163233     48.000000
  0.065293  0.108822  0.174115     48.000000
  0.065293  0.119704  0.184998     24.000000
  0.076175  0.076175  0.152351     24.000000
  0.076175  0.087058  0.163233     48.000000
  0.076175  0.097940  0.174115     48.000000
  0.076175  0.108822  0.184998     48.000000
  0.087058  0.087058  0.174115     24.000000
  0.087058  0.097940  0.184998     48.000000
  0.087058  0.108822  0.195880     24.000000
  0.097940  0.097940  0.195880     24.000000
  0.021764  0.021764  0.021764      8.000000
  0.021764  0.032647  0.032647     24.000000
  0.021764  0.043529  0.043529     24.000000
  0.021764  0.054411  0.054411     24.000000
  0.021764  0.065293  0.065293     24.000000
  0.021764  0.076175  0.076175     24.000000
  0.021764  0.087058  0.087058     24.000000
  0.021764  0.097940  0.097940     24.000000
  0.021764  0.108822  0.108822     24.000000
  0.021764  0.119704  0.119704     24.000000
  0.021764  0.130587  0.130587     24.000000
  0.021764  0.141469  0.141469     24.000000
  0.021764  0.152351  0.152351     12.000000
  0.021764  0.000000  0.000000      6.000000
  0.032647  0.032647  0.043529     24.000000
  0.032647  0.043529  0.054411     48.000000
  0.032647  0.054411  0.065293     48.000000
  0.032647  0.065293  0.076175     48.000000
  0.032647  0.076175  0.087058     48.000000
  0.032647  0.087058  0.097940     48.000000
  0.032647  0.097940  0.108822     48.000000
  0.032647  0.108822  0.119704     48.000000
  0.032647  0.119704  0.130587     48.000000
  0.032647  0.130587  0.141469     48.000000
  0.032647  0.141469  0.152351     48.000000
  0.032647 -0.010882  0.000000     24.000000
  0.043529  0.043529  0.065293     24.000000
  0.043529  0.054411  0.076175     48.000000
  0.043529  0.065293  0.087058     48.000000
  0.043529  0.076175  0.097940     48.000000
  0.043529  0.087058  0.108822     48.000000
  0.043529  0.097940  0.119704     48.000000
  0.043529  0.108822  0.130587     48.000000
  0.043529  0.119704  0.141469     48.000000
  0.043529  0.130587  0.152351     48.000000
  0.043529  0.141469  0.163233     24.000000
  0.043529 -0.021764 -0.000000     24.000000
  0.043529 -0.010882  0.010882     24.000000
  0.054411  0.054411  0.087058     24.000000
  0.054411  0.065293  0.097940     48.000000
  0.054411  0.076175  0.108822     48.000000
  0.054411  0.087058  0.119704     48.000000
  0.054411  0.097940  0.130587     48.000000
  0.054411  0.108822  0.141469     48.000000
  0.054411  0.119704  0.152351     48.000000
  0.054411  0.130587  0.163233     48.000000
  0.054411 -0.032647  0.000000     24.000000
  0.054411 -0.021764  0.010882     48.000000
  0.065293  0.065293  0.108822     24.000000
  0.065293  0.076175  0.119704     48.000000
  0.065293  0.087058  0.130587     48.000000
  0.065293  0.097940  0.141469     48.000000
  0.065293  0.108822  0.152351     48.000000
  0.065293  0.119704  0.163233     48.000000
  0.065293  0.130587  0.174115     24.000000
  0.065293 -0.043529  0.000000     24.000000
  0.065293 -0.032647  0.010882     48.000000
  0.065293 -0.021764  0.021764     24.000000
  0.076175  0.076175  0.130587     24.000000
  0.076175  0.087058  0.141469     48.000000
  0.076175  0.097940  0.152351     48.000000
  0.076175  0.108822  0.163233     48.000000
  0.076175  0.119704  0.174115     48.000000
  0.076175 -0.054411  0.000000     24.000000
  0.076175 -0.043529  0.010882     48.000000
  0.076175 -0.032647  0.021764     48.000000
  0.087058  0.087058  0.152351     24.000000
  0.087058  0.097940  0.163233     48.000000
  0.087058  0.108822  0.174115     48.000000
  0.087058  0.119704  0.184998     24.000000
  0.087058 -0.065293  0.000000     24.000000
  0.087058 -0.054411  0.010882     48.000000
  0.087058 -0.043529  0.021764     48.000000
  0.087058 -0.032647  0.032647     24.000000
  0.097940  0.097940  0.174115     24.000000
  0.097940  0.108822  0.184998     48.000000
  0.097940 -0.076175  0.000000     24.000000
  0.097940 -0.065293  0.010882     48.000000
  0.097940 -0.054411  0.021764     48.000000
  0.097940 -0.043529  0.032647     48.000000
  0.108822  0.108822  0.195880      8.000000
  0.108822 -0.087058  0.000000     24.000000
  0.108822 -0.076175  0.010882     48.000000
  0.108822 -0.065293  0.021764     48.000000
  0.108822 -0.054411  0.032647     48.000000
  0.108822 -0.043529  0.043529     24.000000
  0.119704 -0.097940  0.000000     24.000000
  0.119704 -0.087058  0.010882     48.000000
  0.119704 -0.076175  0.021764     48.000000
  0.119704 -0.065293  0.032647     48.000000
  0.119704 -0.054411  0.043529     48.000000
  0.130587 -0.108822  0.000000     24.000000
  0.130587 -0.097940  0.010882     48.000000
  0.130587 -0.087058  0.021764     48.000000
  0.130587 -0.076175  0.032647     48.000000
  0.130587 -0.065293  0.043529     48.000000
  0.130587 -0.054411  0.054411     24.000000
  0.141469 -0.119704  0.000000     24.000000
  0.141469 -0.108822  0.010882     48.000000
  0.141469 -0.097940  0.021764     48.000000
  0.141469 -0.087058  0.032647     48.000000
  0.141469 -0.076175  0.043529     48.000000
  0.141469 -0.065293  0.054411     48.000000
  0.152351 -0.130587  0.000000     24.000000
  0.152351 -0.119704  0.010882     48.000000
  0.152351 -0.108822  0.021764     48.000000
  0.152351 -0.097940  0.032647     48.000000
  0.152351 -0.087058  0.043529     48.000000
  0.152351 -0.076175  0.054411     48.000000
  0.152351 -0.065293  0.065293     24.000000
  0.163233  0.163233  0.304702     12.000000
  0.163233 -0.130587  0.010882     48.000000
  0.163233 -0.119704  0.021764     48.000000
  0.163233 -0.108822  0.032647     48.000000
  0.163233 -0.097940  0.043529     48.000000
  0.163233 -0.087058  0.054411     48.000000
  0.163233 -0.076175  0.065293     48.000000
 -0.130587 -0.130587 -0.282937     24.000000
 -0.130587 -0.119704 -0.272055     48.000000
 -0.130587 -0.108822 -0.261173     48.000000
 -0.130587 -0.097940 -0.250291     48.000000
 -0.130587 -0.087058 -0.239409     48.000000
 -0.130587 -0.076175 -0.228526     24.000000
 -0.119704 -0.119704 -0.261173     24.000000
 -0.119704 -0.108822 -0.250291     48.000000
 -0.119704 -0.097940 -0.239409     48.000000
 -0.119704 -0.087058 -0.228526     48.000000
 -0.108822 -0.108822 -0.239409     24.000000
 -0.108822 -0.097940 -0.228526     48.000000
 -0.108822 -0.087058 -0.217644     24.000000
 -0.097940 -0.097940 -0.217644     24.000000
  0.043529  0.043529  0.043529      8.000000
  0.043529  0.054411  0.054411     24.000000
  0.043529  0.065293  0.065293     24.000000
  0.043529  0.076175  0.076175     24.000000
  0.043529  0.087058  0.087058     24.000000
  0.043529  0.097940  0.097940     24.000000
  0.043529  0.108822  0.108822     24.000000
  0.043529  0.119704  0.119704     24.000000
  0.043529  0.130587  0.130587     24.000000
  0.043529  0.141469  0.141469     24.000000
  0.043529  0.152351  0.152351     12.000000
  0.043529  0.000000  0.000000      6.000000
  0.054411  0.054411  0.065293     24.000000
  0.054411  0.065293  0.076175     48.000000
  0.054411  0.076175  0.087058     48.000000
  0.054411  0.087058  0.097940     48.000000
  0.054411  0.097940  0.108822     48.000000
  0.054411  0.108822  0.119704     48.000000
  0.054411  0.119704  0.130587     48.000000
  0.054411  0.130587  0.141469     48.000000
  0.054411  0.141469  0.152351     48.000000
  0.054411 -0.010882  0.000000     24.000000
  0.065293  0.065293  0.087058     24.000000
  0.065293  0.076175  0.097940     48.000000
  0.065293  0.087058  0.108822     48.000000
  0.065293  0.097940  0.119704     48.000000
  0.065293  0.108822  0.130587     48.000000
  0.065293  0.119704  0.141469     48.000000
  0.065293  0.130587  0.152351     48.000000
  0.065293  0.141469  0.163233     24.000000
  0.065293 -0.021764  0.000000     24.000000
  0.065293 -0.010882  0.010882     24.000000
  0.076175  0.076175  0.108822     24.000000
  0.076175  0.087058  0.119704     48.000000
  0.076175  0.097940  0.130587     48.000000
  0.076175  0.108822  0.141469     48.000000
  0.076175  0.119704  0.152351     48.000000
  0.076175  0.130587  0.163233     48.000000
  0.076175 -0.032647  0.000000     24.000000
  0.076175 -0.021764  0.010882     48.000000
  0.087058  0.087058  0.130587     24.000000
  0.087058  0.097940  0.141469     48.000000
  0.087058  0.108822  0.152351     48.000000
  0.087058  0.119704  0.163233     48.000000
  0.087058  0.130587  0.174115     24.000000
  0.087058 -0.043529  0.000000     24.000000
  0.087058 -0.032647  0.010882     48.000000
  0.087058 -0.021764  0.021764     24.000000
  0.097940  0.097940  0.152351     24.000000
  0.097940  0.108822  0.163233     48.000000
  0.097940  0.119704  0.174115     48.000000
  0.097940 -0.054411  0.000000     24.000000
  0.097940 -0.043529  0.010882     48.000000
  0.097940 -0.032647  0.021764     48.000000
  0.108822  0.108822  0.174115     24.000000
  0.108822  0.119704  0.184998     24.000000
  0.108822 -0.065293  0.000000     24.000000
  0.108822 -0.054411  0.010882     48.000000
  0.108822 -0.043529  0.021764     48.000000
  0.108822 -0.032647  0.032647     24.000000
  0.119704 -0.076175  0.000000     24.000000
  0.119704 -0.065293  0.010882     48.000000
  0.119704 -0.054411  0.021764     48.000000
  0.119704 -0.043529  0.032647     48.000000
  0.130587 -0.087058  0.000000     24.000000
  0.130587 -0.076175  0.010882     48.000000
  0.130587 -0.065293  0.021764     48.000000
  0.130587 -0.054411  0.032647     48.000000
  0.130587 -0.043529  0.043529     24.000000
  0.141469 -0.097940  0.000000     24.000000
  0.141469 -0.087058  0.010882     48.000000
  0.141469 -0.076175  0.021764     48.000000
  0.141469 -0.065293  0.032647     48.000000
  0.141469 -0.054411  0.043529     48.000000
  0.152351 -0.108822  0.000000     24.000000
  0.152351 -0.097940  0.010882     48.000000
  0.152351 -0.087058  0.021764     48.000000
  0.152351 -0.076175  0.032647     48.000000
  0.152351 -0.065293  0.043529     48.000000
  0.152351 -0.054411  0.054411     24.000000
  0.163233 -0.119704  0.000000     24.000000
  0.163233 -0.108822  0.010882     48.000000
  0.163233 -0.097940  0.021764     48.000000
  0.163233 -0.087058  0.032647     48.000000
  0.163233 -0.076175  0.043529     48.000000
  0.163233 -0.065293  0.054411     48.000000
  0.174115  0.174115  0.304702     12.000000
  0.174115 -0.119704  0.010882     48.000000
  0.174115 -0.108822  0.021764     48.000000
  0.174115 -0.097940  0.032647     48.000000
  0.174115 -0.087058  0.043529     48.000000
  0.174115 -0.076175  0.054411     48.000000
  0.174115 -0.065293  0.065293     24.000000
 -0.119704 -0.119704 -0.282937     24.000000
 -0.119704 -0.108822 -0.272055     48.000000
 -0.119704 -0.097940 -0.261173     48.000000
 -0.119704 -0.087058 -0.250291     48.000000
 -0.119704 -0.076175 -0.239409     48.000000
 -0.108822 -0.108822 -0.261173     24.000000
 -0.108822 -0.097940 -0.250291     48.000000
 -0.108822 -0.087058 -0.239409     48.000000
 -0.108822 -0.076175 -0.228526     24.000000
 -0.097940 -0.097940 -0.239409     24.000000
 -0.097940 -0.087058 -0.228526     48.000000
 -0.087058 -0.087058 -0.217644      8.000000
  0.065293  0.065293  0.065293      8.000000
  0.065293  0.076175  0.076175     24.000000
  0.065293  0.087058  0.087058     24.000000
  0.065293  0.097940  0.097940     24.000000
  0.065293  0.108822  0.108822     24.000000
  0.065293  0.119704  0.119704     24.000000
  0.065293  0.130587  0.130587     24.000000
  0.065293  0.141469  0.141469     24.000000
  0.065293  0.152351  0.152351     12.000000
  0.065293  0.000000 -0.000000      6.000000
  0.076175  0.076175  0.087058     24.000000
  0.076175  0.087058  0.097940     48.000000
  0.076175  0.097940  0.108822     48.000000
  0.076175  0.108822  0.119704     48.000000
  0.076175  0.119704  0.130587     48.000000
  0.076175  0.130587  0.141469     48.000000
  0.076175  0.141469  0.152351     48.000000
  0.076175 -0.010882  0.000000     24.000000
  0.087058  0.087058  0.108822     24.000000
  0.087058  0.097940  0.119704     48.000000
  0.087058  0.108822  0.130587     48.000000
  0.087058  0.119704  0.141469     48.000000
  0.087058  0.130587  0.152351     48.000000
  0.087058  0.141469  0.163233     24.000000
  0.087058 -0.021764  0.000000     24.000000
  0.087058 -0.010882  0.010882     24.000000
  0.097940  0.097940  0.130587     24.000000
  0.097940  0.108822  0.141469     48.000000
  0.097940  0.119704  0.152351     48.000000
  0.097940  0.130587  0.163233     48.000000
  0.097940 -0.032647  0.000000     24.000000
  0.097940 -0.021764  0.010882     48.000000
  0.108822  0.108822  0.152351     24.000000
  0.108822  0.119704  0.163233     48.000000
  0.108822  0.130587  0.174115     24.000000
  0.108822 -0.043529  0.000000     24.000000
  0.108822 -0.032647  0.010882     48.000000
  0.108822 -0.021764  0.021764     24.000000
  0.119704  0.119704  0.174115     24.000000
  0.119704 -0.054411  0.000000     24.000000
  0.119704 -0.043529  0.010882     48.000000
  0.119704 -0.032647  0.021764     48.000000
  0.130587 -0.065293  0.000000     24.000000
  0.130587 -0.054411  0.010882     48.000000
  0.130587 -0.043529  0.021764     48.000000
  0.130587 -0.032647  0.032647     24.000000
  0.141469 -0.076175 -0.000000     24.000000
  0.141469 -0.065293  0.010882     48.000000
  0.141469 -0.054411  0.021764     48.000000
  0.141469 -0.043529  0.032647     48.000000
  0.152351 -0.087058  0.000000     24.000000
  0.152351 -0.076175  0.010882     48.000000
  0.152351 -0.065293  0.021764     48.000000
  0.152351 -0.054411  0.032647     48.000000
  0.152351 -0.043529  0.043529     24.000000
  0.163233 -0.097940  0.000000     24.000000
  0.163233 -0.087058  0.010882     48.000000
  0.163233 -0.076175  0.021764     48.000000
  0.163233 -0.065293  0.032647     48.000000
  0.163233 -0.054411  0.043529     48.000000
  0.174115 -0.108822  0.000000     24.000000
  0.174115 -0.097940  0.010882     48.000000
  0.174115 -0.087058  0.021764     48.000000
  0.174115 -0.076175  0.032647     48.000000
  0.174115 -0.065293  0.043529     48.000000
  0.174115 -0.054411  0.054411     24.000000
  0.184998  0.184998  0.304702     12.000000
  0.184998 -0.108822  0.010882     48.000000
  0.184998 -0.097940  0.021764     48.000000
  0.184998 -0.087058  0.032647     48.000000
  0.184998 -0.076175  0.043529     48.000000
  0.184998 -0.065293  0.054411     48.000000
 -0.108822 -0.108822 -0.282937     24.000000
 -0.108822 -0.097940 -0.272055     48.000000
 -0.108822 -0.087058 -0.261173     48.000000
 -0.108822 -0.076175 -0.250291     48.000000
 -0.108822 -0.065293 -0.239409     24.000000
 -0.097940 -0.097940 -0.261173     24.000000
 -0.097940 -0.087058 -0.250291     48.000000
 -0.097940 -0.076175 -0.239409     48.000000
 -0.087058 -0.087058 -0.239409     24.000000
 -0.087058 -0.076175 -0.228526     24.000000
  0.087058  0.087058  0.087058      8.000000
  0.087058  0.097940  0.097940     24.000000
  0.087058  0.108822  0.108822     24.000000
  0.087058  0.119704  0.119704     24.000000
  0.087058  0.130587  0.130587     24.000000
  0.087058  0.141469  0.141469     24.000000
  0.087058  0.152351  0.152351     12.000000
  0.087058  0.000000  0.000000      6.000000
  0.097940  0.097940  0.108822     24.000000
  0.097940  0.108822  0.119704     48.000000
  0.097940  0.119704  0.130587     48.000000
  0.097940  0.130587  0.141469     48.000000
  0.097940  0.141469  0.152351     48.000000
  0.097940 -0.010882  0.000000     24.000000
  0.108822  0.108822  0.130587     24.000000
  0.108822  0.119704  0.141469     48.000000
  0.108822  0.130587  0.152351     48.000000
  0.108822  0.141469  0.163233     24.000000
  0.108822 -0.021764  0.000000     24.000000
  0.108822 -0.010882  0.010882     24.000000
  0.119704  0.119704  0.152351     24.000000
  0.119704  0.130587  0.163233     48.000000
  0.119704 -0.032647  0.000000     24.000000
  0.119704 -0.021764  0.010882     48.000000
  0.130587  0.130587  0.174115      8.000000
  0.130587 -0.043529  0.000000     24.000000
  0.130587 -0.032647  0.010882     48.000000
  0.130587 -0.021764  0.021764     24.000000
  0.141469 -0.054411  0.000000     24.000000
  0.141469 -0.043529  0.010882     48.000000
  0.141469 -0.032647  0.021764     48.000000
  0.152351 -0.065293  0.000000     24.000000
  0.152351 -0.054411  0.010882     48.000000
  0.152351 -0.043529  0.021764     48.000000
  0.152351 -0.032647  0.032647     24.000000
  0.163233 -0.076175  0.000000     24.000000
  0.163233 -0.065293  0.010882     48.000000
  0.163233 -0.054411  0.021764     48.000000
  0.163233 -0.043529  0.032647     48.000000
  0.174115 -0.087058  0.000000     24.000000
  0.174115 -0.076175  0.010882     48.000000
  0.174115 -0.065293  0.021764     48.000000
  0.174115 -0.054411  0.032647     48.000000
  0.174115 -0.043529  0.043529     24.000000
  0.184998 -0.097940  0.000000     24.000000
  0.184998 -0.087058  0.010882     48.000000
  0.184998 -0.076175  0.021764     48.000000
  0.184998 -0.065293  0.032647     48.000000
  0.184998 -0.054411  0.043529     48.000000
  0.195880  0.195880  0.304702     12.000000
  0.195880 -0.097940  0.010882     48.000000
  0.195880 -0.087058  0.021764     48.000000
  0.195880 -0.076175  0.032647     48.000000
  0.195880 -0.065293  0.043529     48.000000
  0.195880 -0.054411  0.054411     24.000000
 -0.097940 -0.097940 -0.282937     24.000000
 -0.097940 -0.087058 -0.272055     48.000000
 -0.097940 -0.076175 -0.261173     48.000000
 -0.097940 -0.065293 -0.250291     48.000000
 -0.087058 -0.087058 -0.261173     24.000000
 -0.087058 -0.076175 -0.250291     48.000000
 -0.087058 -0.065293 -0.239409     24.000000
 -0.076175 -0.076175 -0.239409     24.000000
  0.108822  0.108822  0.108822      8.000000
  0.108822  0.119704  0.119704     24.000000
  0.108822  0.130587  0.130587     24.000000
  0.108822  0.141469  0.141469     24.000000
  0.108822  0.152351  0.152351     12.000000
  0.108822  0.000000  0.000000      6.000000
  0.119704  0.119704  0.130587     24.000000
  0.119704  0.130587  0.141469     48.000000
  0.119704  0.141469  0.152351     48.000000
  0.119704 -0.010882  0.000000     24.000000
  0.130587  0.130587  0.152351     24.000000
  0.130587  0.141469  0.163233     24.000000
  0.130587 -0.021764  0.000000     24.000000
  0.130587 -0.010882  0.010882     24.000000
  0.141469 -0.032647  0.000000     24.000000
  0.141469 -0.021764  0.010882     48.000000
  0.152351 -0.043529  0.000000     24.000000
  0.152351 -0.032647  0.010882     48.000000
  0.152351 -0.021764  0.021764     24.000000
  0.163233 -0.054411 -0.000000     24.000000
  0.163233 -0.043529  0.010882     48.000000
  0.163233 -0.032647  0.021764     48.000000
  0.174115 -0.065293  0.000000     24.000000
  0.174115 -0.054411  0.010882     48.000000
  0.174115 -0.043529  0.021764     48.000000
  0.174115 -0.032647  0.032647     24.000000
  0.184998 -0.076175  0.000000     24.000000
  0.184998 -0.065293  0.010882     48.000000
  0.184998 -0.054411  0.021764     48.000000
  0.184998 -0.043529  0.032647     48.000000
  0.195880 -0.087058  0.000000     24.000000
  0.195880 -0.076175  0.010882     48.000000
  0.195880 -0.065293  0.021764     48.000000
  0.195880 -0.054411  0.032647     48.000000
  0.195880 -0.043529  0.043529     24.000000
  0.206762  0.206762  0.304702     12.000000
  0.206762 -0.087058  0.010882     48.000000
  0.206762 -0.076175  0.021764     48.000000
  0.206762 -0.065293  0.032647     48.000000
  0.206762 -0.054411  0.043529     48.000000
 -0.087058 -0.087058 -0.282937     24.000000
 -0.087058 -0.076175 -0.272055     48.000000
 -0.087058 -0.065293 -0.261173     48.000000
 -0.087058 -0.054411 -0.250291     24.000000
 -0.076175 -0.076175 -0.261173     24.000000
 -0.076175 -0.065293 -0.250291     48.000000
 -0.065293 -0.065293 -0.239409      8.000000
  0.130587  0.130587  0.130587      8.000000
  0.130587  0.141469  0.141469     24.000000
  0.130587  0.152351  0.152351     12.000000
  0.130587  0.000000  0.000000      6.000000
  0.141469  0.141469  0.152351     24.000000
  0.141469 -0.010882  0.000000     24.000000
  0.152351 -0.021764  0.000000     24.000000
  0.152351 -0.010882  0.010882     24.000000
  0.163233 -0.032647  0.000000     24.000000
  0.163233 -0.021764  0.010882     48.000000
  0.174115 -0.043529 -0.000000     24.000000
  0.174115 -0.032647  0.010882     48.000000
  0.174115 -0.021764  0.021764     24.000000
  0.184998 -0.054411  0.000000     24.000000
  0.184998 -0.043529  0.010882     48.000000
  0.184998 -0.032647  0.021764     48.000000
  0.195880 -0.065293  0.000000     24.000000
  0.195880 -0.054411  0.010882     48.000000
  0.195880 -0.043529  0.021764     48.000000
  0.195880 -0.032647  0.032647     24.000000
  0.206762 -0.076175  0.000000     24.000000
  0.206762 -0.065293  0.010882     48.000000
  0.206762 -0.054411  0.021764     48.000000
  0.206762 -0.043529  0.032647     48.000000
  0.217644  0.217644  0.304702     12.000000
  0.217644 -0.076175  0.010882     48.000000
  0.217644 -0.065293  0.021764     48.000000
  0.217644 -0.054411  0.032647     48.000000
  0.217644 -0.043529  0.043529     24.000000
 -0.076175 -0.076175 -0.282937     24.000000
 -0.076175 -0.065293 -0.272055     48.000000
 -0.076175 -0.054411 -0.261173     48.000000
 -0.065293 -0.065293 -0.261173     24.000000
 -0.065293 -0.054411 -0.250291     24.000000
  0.152351  0.152351  0.152351      2.000000
  0.152351  0.000000  0.000000      6.000000
  0.163233 -0.010882  0.000000     24.000000
  0.174115 -0.021764  0.000000     24.000000
  0.174115 -0.010882  0.010882     24.000000
  0.184998 -0.032647  0.000000     24.000000
  0.184998 -0.021764  0.010882     48.000000
  0.195880 -0.043529  0.000000     24.000000
  0.195880 -0.032647  0.010882     48.000000
  0.195880 -0.021764  0.021764     24.000000
  0.206762 -0.054411  0.000000     24.000000
  0.206762 -0.043529  0.010882     48.000000
  0.206762 -0.032647  0.021764     48.000000
  0.217644 -0.065293  0.000000     24.000000
  0.217644 -0.054411  0.010882     48.000000
  0.217644 -0.043529  0.021764     48.000000
  0.217644 -0.032647  0.032647     24.000000
  0.228526  0.228526  0.304702     12.000000
  0.228526 -0.065293  0.010882     48.000000
  0.228526 -0.054411  0.021764     48.000000
  0.228526 -0.043529  0.032647     48.000000
 -0.065293 -0.065293 -0.282937     24.000000
 -0.065293 -0.054411 -0.272055     48.000000
 -0.065293 -0.043529 -0.261173     24.000000
 -0.054411 -0.054411 -0.261173     24.000000
  0.174115  0.000000  0.000000      6.000000
  0.184998 -0.010882  0.000000     24.000000
  0.195880 -0.021764  0.000000     24.000000
  0.195880 -0.010882  0.010882     24.000000
  0.206762 -0.032647  0.000000     24.000000
  0.206762 -0.021764  0.010882     48.000000
  0.217644 -0.043529  0.000000     24.000000
  0.217644 -0.032647  0.010882     48.000000
  0.217644 -0.021764  0.021764     24.000000
  0.228526 -0.054411  0.000000     24.000000
  0.228526 -0.043529  0.010882     48.000000
  0.228526 -0.032647  0.021764     48.000000
  0.239409  0.239409  0.304702     12.000000
  0.239409 -0.054411  0.010882     48.000000
  0.239409 -0.043529  0.021764     48.000000
  0.239409 -0.032647  0.032647     24.000000
 -0.054411 -0.054411 -0.282937     24.000000
 -0.054411 -0.043529 -0.272055     48.000000
 -0.043529 -0.043529 -0.261173      8.000000
  0.195880  0.000000  0.000000      6.000000
  0.206762 -0.010882 -0.000000     24.000000
  0.217644 -0.021764  0.000000     24.000000
  0.217644 -0.010882  0.010882     24.000000
  0.228526 -0.032647  0.000000     24.000000
  0.228526 -0.021764  0.010882     48.000000
  0.239409 -0.043529  0.000000     24.000000
  0.239409 -0.032647  0.010882     48.000000
  0.239409 -0.021764  0.021764     24.000000
  0.250291  0.250291  0.304702     12.000000
  0.250291 -0.043529  0.010882     48.000000
  0.250291 -0.032647  0.021764     48.000000
 -0.043529 -0.043529 -0.282937     24.000000
 -0.043529 -0.032647 -0.272055     24.000000
  0.217644  0.000000  0.000000      6.000000
  0.228526 -0.010882  0.000000     24.000000
  0.239409 -0.021764  0.000000     24.000000
  0.239409 -0.010882  0.010882     24.000000
  0.250291 -0.032647  0.000000     24.000000
  0.250291 -0.021764  0.010882     48.000000
  0.261173  0.261173  0.304702     12.000000
  0.261173 -0.032647  0.010882     48.000000
  0.261173 -0.021764  0.021764     24.000000
 -0.032647 -0.032647 -0.282937     24.000000
  0.239409  0.000000  0.000000      6.000000
  0.250291 -0.010882  0.000000     24.000000
  0.261173 -0.021764  0.000000     24.000000
  0.261173 -0.010882  0.010882     24.000000
  0.272055  0.272055  0.304702     12.000000
  0.272055 -0.021764  0.010882     48.000000
 -0.021764 -0.021764 -0.282937      8.000000
  0.261173  0.000000  0.000000      6.000000
  0.272055 -0.010882  0.000000     24.000000
  0.282937  0.282937  0.304702     12.000000
  0.282937 -0.010882  0.010882     24.000000
  0.282937  0.000000  0.000000      6.000000
  0.293820  0.293820  0.304702     12.000000
  0.304702  0.304702  0.304702      1.000000
 


--------------------------------------------------------------------------------------------------------




 Dimension of arrays:
   k-points           NKPTS =    624   k-points in BZ     NKDIM =    624   number of bands    NBANDS=     10
   number of dos      NEDOS =    301   number of ions     NIONS =      1
   non local maximal  LDIM  =      6   non local SUM 2l+1 LMDIM =     18
   total plane-waves  NPLWV =  13824
   max r-space proj   IRMAX =      1   max aug-charges    IRDMAX=   6226
   dimension x,y,z NGX =    24 NGY =   24 NGZ =   24
   dimension x,y,z NGXF=    28 NGYF=   28 NGZF=   28
   support grid    NGXF=    28 NGYF=   28 NGZF=   28
   ions per type =               1
   NGX,Y,Z   is equivalent  to a cutoff of  14.04, 14.04, 14.04 a.u.
   NGXF,Y,Z  is equivalent  to a cutoff of  16.38, 16.38, 16.38 a.u.

 SYSTEM =  unknown system                          
 POSCAR =  Ti                                      

 Startparameter for this run:
   NWRITE =      2    write-flag & timer
   PREC   = high      normal or accurate (medium, high low for compatibility)
   ISTART =      0    job   : 0-new  1-cont  2-samecut
   ICHARG =      2    charge: 1-file 2-atom 10-const
   ISPIN  =      1    spin polarized calculation?
   LNONCOLLINEAR =      F non collinear calculations
   LSORBIT =      F    spin-orbit coupling
   INIWAV =      1    electr: 0-lowe 1-rand  2-diag
   LASPH  =      F    aspherical Exc in radial PAW
   METAGGA=      F    non-selfconsistent MetaGGA calc.

 Electronic Relaxation 1
   ENCUT  =  560.0 eV  41.16 Ry    6.42 a.u.   5.48  5.48  5.48*2*pi/ulx,y,z
   ENINI  =  560.0     initial cutoff
   ENAUG  =  482.8 eV  augmentation charge cutoff
   NELM   =    200;   NELMIN=  5; NELMDL= -5     # of ELM steps 
   EDIFF  = 0.1E-05   stopping-criterion for ELM
   LREAL  =      F    real-space projection
   NLSPLINE    = F    spline interpolate recip. space projectors
   LCOMPAT=      F    compatible to vasp.4.4
   GGA_COMPAT  = T    GGA compatible to vasp.4.4-vasp.4.6
   LMAXPAW     = -100 max onsite density
   LMAXMIX     =    2 max onsite mixed and CHGCAR
   VOSKOWN=      0    Vosko Wilk Nusair interpolation
   ROPT   =    0.00000
 Ionic relaxation
   EDIFFG = 0.1E-04   stopping-criterion for IOM
   NSW    =      0    number of steps for IOM
   NBLOCK =      1;   KBLOCK =      1    inner block; outer block 
   IBRION =     -1    ionic relax: 0-MD 1-quasi-New 2-CG
   NFREE  =      0    steps in history (QN), initial steepest desc. (CG)
   ISIF   =      2    stress and relaxation
   IWAVPR =      0    prediction:  0-non 1-charg 2-wave 3-comb
   ISYM   =      2    0-nonsym 1-usesym 2-fastsym
   LCORR  =      T    Harris-Foulkes like correction to forces

   POTIM  = 0.5000    time-step for ionic-motion
   TEIN   =    0.0    initial temperature
   TEBEG  =    0.0;   TEEND  =   0.0 temperature during run
   SMASS  =  -3.00    Nose mass-parameter (am)
   estimated Nose-frequenzy (Omega)   =  0.10E-29 period in steps =****** mass=  -0.185E-27a.u.
   SCALEE = 1.0000    scale energy and forces
   NPACO  =    256;   APACO  = 16.0  distance and # of slots for P.C.
   PSTRESS=    0.0 pullay stress

  Mass of Ions in am
   POMASS =  47.88
  Ionic Valenz
   ZVAL   =  12.00
  Atomic Wigner-Seitz radii
   RWIGS  =  -1.00
  virtual crystal weights 
   VCA    =   1.00
   NELECT =      12.0000    total number of electrons
   NUPDOWN=      -1.0000    fix difference up-down

 DOS related values:
   EMIN   =  10.00;   EMAX   =-10.00  energy-range for DOS
   EFERMI =   0.00
   ISMEAR =     1;   SIGMA  =   0.16  broadening in eV -4-tet -1-fermi 0-gaus

 Electronic relaxation 2 (details)
   IALGO  =     38    algorithm
   LDIAG  =      T    sub-space diagonalisation (order eigenvalues)
   LSUBROT=      F    optimize rotation matrix (better conditioning)
   TURBO    =      0    0=normal 1=particle mesh
   IRESTART =      0    0=no restart 2=restart with 2 vectors
   NREBOOT  =      0    no. of reboots
   NMIN     =      0    reboot dimension
   EREF     =   0.00    reference energy to select bands
   IMIX   =      4    mixing-type and parameters
     AMIX     =   0.40;   BMIX     =  1.00
     AMIX_MAG =   1.60;   BMIX_MAG =  1.00
     AMIN     =   0.10
     WC   =   100.;   INIMIX=   1;  MIXPRE=   1;  MAXMIX= -45

 Intra band minimization:
   WEIMIN = 0.0000     energy-eigenvalue tresh-hold
   EBREAK =  0.25E-07  absolut break condition
   DEPER  =   0.30     relativ break condition  

   TIME   =   0.40     timestep for ELM

  volume/ion in A,a.u.               =      17.67       119.27
  Fermi-wavevector in a.u.,A,eV,Ry     =   1.438866  2.719063 28.168625  2.070335
  Thomas-Fermi vector in A             =   2.557785
 
 Write flags
   LWAVE        =      F    write WAVECAR
   LDOWNSAMPLE  =      F    k-point downsampling of WAVECAR
   LCHARG       =      F    write CHGCAR
   LVTOT        =      F    write LOCPOT, total local potential
   LVHAR        =      F    write LOCPOT, Hartree potential only
   LELF         =      F    write electronic localiz. function (ELF)
   LORBIT       =      0    0 simple, 1 ext, 2 COOP (PROOUT), +10 PAW based schemes


 Dipole corrections
   LMONO  =      F    monopole corrections only (constant potential shift)
   LDIPOL =      F    correct potential (dipole corrections)
   IDIPOL =      0    1-x, 2-y, 3-z, 4-all directions 
   EPSILON=  1.0000000 bulk dielectric constant

 Exchange correlation treatment:
   GGA     =    PE    GGA type
   LEXCH   =     8    internal setting for exchange type
   VOSKOWN=      0    Vosko Wilk Nusair interpolation
   LHFCALC =     F    Hartree Fock is set to
   LHFONE  =     F    Hartree Fock one center treatment
   AEXX    =    0.0000 exact exchange contribution

 Linear response parameters
   LEPSILON=     F    determine dielectric tensor
   LRPA    =     F    only Hartree local field effects (RPA)
   LNABLA  =     F    use nabla operator in PAW spheres
   LVEL    =     F    velocity operator in full k-point grid
   LINTERFAST=   F  fast interpolation
   KINTER  =     0    interpolate to denser k-point grid
   CSHIFT  =0.1000    complex shift for real part using Kramers Kronig
   OMEGAMAX=  -1.0    maximum frequency
   DEG_THRESHOLD= 0.2000000E-02 threshold for treating states as degnerate
   RTIME   =   -0.100 relaxation time in fs
  (WPLASMAI=    0.000 imaginary part of plasma frequency in eV, 0.658/RTIME)
   DFIELD  = 0.0000000 0.0000000 0.0000000 field for delta impulse in time
 
 Orbital magnetization related:
   ORBITALMAG=     F  switch on orbital magnetization
   LCHIMAG   =     F  perturbation theory with respect to B field
   DQ        =  0.001000  dq finite difference perturbation B field
   LLRAUG    =     F  two centre corrections for induced B field



--------------------------------------------------------------------------------------------------------


 Static calculation
 charge density and potential will be updated during run
 non-spin polarized calculation
 Variant of blocked Davidson
 Davidson routine will perform the subspace rotation
 perform sub-space diagonalisation
    after iterative eigenvector-optimisation
 modified Broyden-mixing scheme, WC =      100.0
 initial mixing is a Kerker type mixing with AMIX =  0.4000 and BMIX =      1.0000
 Hartree-type preconditioning will be used
 using additional bands            4
 reciprocal scheme for non local part
 use partial core corrections
 calculate Harris-corrections to forces 
   (improved forces if not selfconsistent)
 use gradient corrections 
 use of overlap-Matrix (Vanderbilt PP)
 Methfessel and Paxton  Order N= 1 SIGMA  =   0.16


--------------------------------------------------------------------------------------------------------


  energy-cutoff  :      560.00
  volume of cell :       17.67
      direct lattice vectors                 reciprocal lattice vectors
    -1.640948249  1.640948249  1.640948249     0.000000000  0.304701870  0.304701870
     1.640948249 -1.640948249  1.640948249     0.304701870  0.000000000  0.304701870
     1.640948249  1.640948249 -1.640948249     0.304701870  0.304701870  0.000000000

  length of vectors
     2.842205739  2.842205739  2.842205739     0.430913517  0.430913517  0.430913517


 
 k-points in units of 2pi/SCALE and weight: read from INCAR                         
   0.00000000  0.00000000  0.00000000       0.000
   0.00000000  0.01088221  0.01088221       0.001
   0.00000000  0.02176442  0.02176442       0.001
   0.00000000  0.03264663  0.03264663       0.001
   0.00000000  0.04352884  0.04352884       0.001
   0.00000000  0.05441105  0.05441105       0.001
   0.00000000  0.06529326  0.06529326       0.001
   0.00000000  0.07617547  0.07617547       0.001
   0.00000000  0.08705768  0.08705768       0.001
   0.00000000  0.09793989  0.09793989       0.001
   0.00000000  0.10882210  0.10882210       0.001
   0.00000000  0.11970431  0.11970431       0.001
   0.00000000  0.13058652  0.13058652       0.001
   0.00000000  0.14146873  0.14146873       0.001
   0.00000000  0.15235094  0.15235094       0.000
   0.01088221  0.01088221  0.02176442       0.001
   0.01088221  0.02176442  0.03264663       0.002
   0.01088221  0.03264663  0.04352884       0.002
   0.01088221  0.04352884  0.05441105       0.002
   0.01088221  0.05441105  0.06529326       0.002
   0.01088221  0.06529326  0.07617547       0.002
   0.01088221  0.07617547  0.08705768       0.002
   0.01088221  0.08705768  0.09793989       0.002
   0.01088221  0.09793989  0.10882210       0.002
   0.01088221  0.10882210  0.11970431       0.002
   0.01088221  0.11970431  0.13058652       0.002
   0.01088221  0.13058652  0.14146873       0.002
   0.01088221  0.14146873  0.15235094       0.002
   0.02176442  0.02176442  0.04352884       0.001
   0.02176442  0.03264663  0.05441105       0.002
   0.02176442  0.04352884  0.06529326       0.002
   0.02176442  0.05441105  0.07617547       0.002
   0.02176442  0.06529326  0.08705768       0.002
   0.02176442  0.07617547  0.09793989       0.002
   0.02176442  0.08705768  0.10882210       0.002
   0.02176442  0.09793989  0.11970431       0.002
   0.02176442  0.10882210  0.13058652       0.002
   0.02176442  0.11970431  0.14146873       0.002
   0.02176442  0.13058652  0.15235094       0.002
   0.02176442  0.14146873  0.16323314       0.001
   0.03264663  0.03264663  0.06529326       0.001
   0.03264663  0.04352884  0.07617547       0.002
   0.03264663  0.05441105  0.08705768       0.002
   0.03264663  0.06529326  0.09793989       0.002
   0.03264663  0.07617547  0.10882210       0.002
   0.03264663  0.08705768  0.11970431       0.002
   0.03264663  0.09793989  0.13058652       0.002
   0.03264663  0.10882210  0.14146873       0.002
   0.03264663  0.11970431  0.15235094       0.002
   0.03264663  0.13058652  0.16323314       0.002
   0.04352884  0.04352884  0.08705768       0.001
   0.04352884  0.05441105  0.09793989       0.002
   0.04352884  0.06529326  0.10882210       0.002
   0.04352884  0.07617547  0.11970431       0.002
   0.04352884  0.08705768  0.13058652       0.002
   0.04352884  0.09793989  0.14146873       0.002
   0.04352884  0.10882210  0.15235094       0.002
   0.04352884  0.11970431  0.16323314       0.002
   0.04352884  0.13058652  0.17411535       0.001
   0.05441105  0.05441105  0.10882210       0.001
   0.05441105  0.06529326  0.11970431       0.002
[...]
 k-point ** :  -0.3214-0.4286 0.0714  plane waves:     531
 k-point ** :  -0.3929-0.3929 0.0714  plane waves:     529
 k-point ** :  -0.3571-0.3929 0.0714  plane waves:     530
 k-point ** :  -0.3571-0.3571 0.0714  plane waves:     523
 k-point ** :   0.1071 0.1071 0.1071  plane waves:     534
 k-point ** :   0.1429 0.1071 0.1071  plane waves:     530
 k-point ** :   0.1786 0.1071 0.1071  plane waves:     528
 k-point ** :   0.2143 0.1071 0.1071  plane waves:     529
 k-point ** :   0.2500 0.1071 0.1071  plane waves:     530
 k-point ** :   0.2857 0.1071 0.1071  plane waves:     528
 k-point ** :   0.3214 0.1071 0.1071  plane waves:     529
 k-point ** :   0.3571 0.1071 0.1071  plane waves:     529
 k-point ** :   0.3929 0.1071 0.1071  plane waves:     524
 k-point ** :  -0.1071 0.1071 0.1071  plane waves:     543
 k-point ** :   0.1429 0.1429 0.1071  plane waves:     527
 k-point ** :   0.1786 0.1429 0.1071  plane waves:     525
 k-point ** :   0.2143 0.1429 0.1071  plane waves:     527
 k-point ** :   0.2500 0.1429 0.1071  plane waves:     529
 k-point ** :   0.2857 0.1429 0.1071  plane waves:     530
 k-point ** :   0.3214 0.1429 0.1071  plane waves:     528
 k-point ** :   0.3571 0.1429 0.1071  plane waves:     526
 k-point ** :  -0.1429 0.1429 0.1071  plane waves:     543
 k-point ** :   0.1786 0.1786 0.1071  plane waves:     523
 k-point ** :   0.2143 0.1786 0.1071  plane waves:     526
 k-point ** :   0.2500 0.1786 0.1071  plane waves:     527
 k-point ** :   0.2857 0.1786 0.1071  plane waves:     531
 k-point ** :   0.3214 0.1786 0.1071  plane waves:     527
 k-point ** :   0.3571 0.1786 0.1071  plane waves:     525
 k-point ** :  -0.1786 0.1786 0.1071  plane waves:     543
 k-point ** :  -0.1429 0.1786 0.1071  plane waves:     543
 k-point ** :   0.2143 0.2143 0.1071  plane waves:     526
 k-point ** :   0.2500 0.2143 0.1071  plane waves:     528
 k-point ** :   0.2857 0.2143 0.1071  plane waves:     526
 k-point ** :   0.3214 0.2143 0.1071  plane waves:     526
 k-point ** :  -0.2143 0.2143 0.1071  plane waves:     540
 k-point ** :  -0.1786 0.2143 0.1071  plane waves:     540
 k-point ** :   0.2500 0.2500 0.1071  plane waves:     527
 k-point ** :   0.2857 0.2500 0.1071  plane waves:     527
 k-point ** :   0.3214 0.2500 0.1071  plane waves:     529
 k-point ** :  -0.2500 0.2500 0.1071  plane waves:     536
 k-point ** :  -0.2143 0.2500 0.1071  plane waves:     537
 k-point ** :  -0.1786 0.2500 0.1071  plane waves:     541
 k-point ** :   0.2857 0.2857 0.1071  plane waves:     527
 k-point ** :  -0.2857 0.2857 0.1071  plane waves:     538
 k-point ** :  -0.2500 0.2857 0.1071  plane waves:     535
 k-point ** :  -0.2143 0.2857 0.1071  plane waves:     539
 k-point ** :  -0.3214 0.3214 0.1071  plane waves:     542
 k-point ** :  -0.2857 0.3214 0.1071  plane waves:     539
 k-point ** :  -0.2500 0.3214 0.1071  plane waves:     537
 k-point ** :  -0.2143 0.3214 0.1071  plane waves:     536
 k-point ** :  -0.3571 0.3571 0.1071  plane waves:     537
 k-point ** :  -0.3214 0.3571 0.1071  plane waves:     540
 k-point ** :  -0.2857 0.3571 0.1071  plane waves:     536
 k-point ** :  -0.2500 0.3571 0.1071  plane waves:     535
 k-point ** :  -0.3929 0.3929 0.1071  plane waves:     538
 k-point ** :  -0.3571 0.3929 0.1071  plane waves:     538
 k-point ** :  -0.3214 0.3929 0.1071  plane waves:     537
 k-point ** :  -0.2857 0.3929 0.1071  plane waves:     534
 k-point ** :  -0.2500 0.3929 0.1071  plane waves:     537
 k-point ** :  -0.4286 0.4286 0.1071  plane waves:     531
 k-point ** :  -0.3929 0.4286 0.1071  plane waves:     536
 k-point ** :  -0.3571 0.4286 0.1071  plane waves:     536
 k-point ** :  -0.3214 0.4286 0.1071  plane waves:     536
 k-point ** :  -0.2857 0.4286 0.1071  plane waves:     532
 k-point ** :  -0.4643 0.4643 0.1071  plane waves:     531
 k-point ** :  -0.4286 0.4643 0.1071  plane waves:     533
 k-point ** :  -0.3929 0.4643 0.1071  plane waves:     532
 k-point ** :  -0.3571 0.4643 0.1071  plane waves:     532
 k-point ** :  -0.3214 0.4643 0.1071  plane waves:     530
 k-point ** :  -0.2857 0.4643 0.1071  plane waves:     530
 k-point ** :   0.5000 0.5000 0.1071  plane waves:     530
 k-point ** :  -0.4643 0.5000 0.1071  plane waves:     529
 k-point ** :  -0.4286 0.5000 0.1071  plane waves:     531
 k-point ** :  -0.3929 0.5000 0.1071  plane waves:     532
 k-point ** :  -0.3571 0.5000 0.1071  plane waves:     535
 k-point ** :  -0.3214 0.5000 0.1071  plane waves:     531
 k-point ** :  -0.4643-0.4643 0.1071  plane waves:     532
 k-point ** :  -0.4286-0.4643 0.1071  plane waves:     530
 k-point ** :  -0.3929-0.4643 0.1071  plane waves:     535
 k-point ** :  -0.3571-0.4643 0.1071  plane waves:     536
 k-point ** :  -0.3214-0.4643 0.1071  plane waves:     531
 k-point ** :  -0.4286-0.4286 0.1071  plane waves:     533
 k-point ** :  -0.3929-0.4286 0.1071  plane waves:     533
 k-point ** :  -0.3571-0.4286 0.1071  plane waves:     533
 k-point ** :  -0.3929-0.3929 0.1071  plane waves:     535
 k-point ** :  -0.3571-0.3929 0.1071  plane waves:     533
 k-point ** :   0.1429 0.1429 0.1429  plane waves:     525
 k-point ** :   0.1786 0.1429 0.1429  plane waves:     523
 k-point ** :   0.2143 0.1429 0.1429  plane waves:     527
 k-point ** :   0.2500 0.1429 0.1429  plane waves:     528
 k-point ** :   0.2857 0.1429 0.1429  plane waves:     528
 k-point ** :   0.3214 0.1429 0.1429  plane waves:     525
 k-point ** :   0.3571 0.1429 0.1429  plane waves:     526
 k-point ** :  -0.1429 0.1429 0.1429  plane waves:     551
 k-point ** :   0.1786 0.1786 0.1429  plane waves:     525
 k-point ** :   0.2143 0.1786 0.1429  plane waves:     523
 k-point ** :   0.2500 0.1786 0.1429  plane waves:     524
 k-point ** :   0.2857 0.1786 0.1429  plane waves:     526
 k-point ** :   0.3214 0.1786 0.1429  plane waves:     526
 k-point ** :  -0.1786 0.1786 0.1429  plane waves:     543
 k-point ** :   0.2143 0.2143 0.1429  plane waves:     523
 k-point ** :   0.2500 0.2143 0.1429  plane waves:     525
 k-point ** :   0.2857 0.2143 0.1429  plane waves:     527
 k-point ** :   0.3214 0.2143 0.1429  plane waves:     532
 k-point ** :  -0.2143 0.2143 0.1429  plane waves:     542
 k-point ** :  -0.1786 0.2143 0.1429  plane waves:     543
 k-point ** :   0.2500 0.2500 0.1429  plane waves:     529
 k-point ** :   0.2857 0.2500 0.1429  plane waves:     533
 k-point ** :  -0.2500 0.2500 0.1429  plane waves:     538
 k-point ** :  -0.2143 0.2500 0.1429  plane waves:     542
 k-point ** :   0.2857 0.2857 0.1429  plane waves:     529
 k-point ** :  -0.2857 0.2857 0.1429  plane waves:     533
 k-point ** :  -0.2500 0.2857 0.1429  plane waves:     536
 k-point ** :  -0.2143 0.2857 0.1429  plane waves:     540
 k-point ** :  -0.3214 0.3214 0.1429  plane waves:     538
 k-point ** :  -0.2857 0.3214 0.1429  plane waves:     539
 k-point ** :  -0.2500 0.3214 0.1429  plane waves:     538
 k-point ** :  -0.3571 0.3571 0.1429  plane waves:     541
 k-point ** :  -0.3214 0.3571 0.1429  plane waves:     538
 k-point ** :  -0.2857 0.3571 0.1429  plane waves:     535
 k-point ** :  -0.2500 0.3571 0.1429  plane waves:     538
 k-point ** :  -0.3929 0.3929 0.1429  plane waves:     535
 k-point ** :  -0.3571 0.3929 0.1429  plane waves:     538
 k-point ** :  -0.3214 0.3929 0.1429  plane waves:     534
 k-point ** :  -0.2857 0.3929 0.1429  plane waves:     533
 k-point ** :  -0.4286 0.4286 0.1429  plane waves:     530
 k-point ** :  -0.3929 0.4286 0.1429  plane waves:     534
 k-point ** :  -0.3571 0.4286 0.1429  plane waves:     537
 k-point ** :  -0.3214 0.4286 0.1429  plane waves:     534
 k-point ** :  -0.2857 0.4286 0.1429  plane waves:     536
 k-point ** :  -0.4643 0.4643 0.1429  plane waves:     531
 k-point ** :  -0.4286 0.4643 0.1429  plane waves:     532
 k-point ** :  -0.3929 0.4643 0.1429  plane waves:     534
 k-point ** :  -0.3571 0.4643 0.1429  plane waves:     533
 k-point ** :  -0.3214 0.4643 0.1429  plane waves:     532
 k-point ** :   0.5000 0.5000 0.1429  plane waves:     526
 k-point ** :  -0.4643 0.5000 0.1429  plane waves:     529
 k-point ** :  -0.4286 0.5000 0.1429  plane waves:     532
 k-point ** :  -0.3929 0.5000 0.1429  plane waves:     532
 k-point ** :  -0.3571 0.5000 0.1429  plane waves:     534
 k-point ** :  -0.3214 0.5000 0.1429  plane waves:     530
 k-point ** :  -0.4643-0.4643 0.1429  plane waves:     528
 k-point ** :  -0.4286-0.4643 0.1429  plane waves:     529
 k-point ** :  -0.3929-0.4643 0.1429  plane waves:     532
 k-point ** :  -0.3571-0.4643 0.1429  plane waves:     532
 k-point ** :  -0.4286-0.4286 0.1429  plane waves:     533
 k-point ** :  -0.3929-0.4286 0.1429  plane waves:     531
 k-point ** :  -0.3571-0.4286 0.1429  plane waves:     529
 k-point ** :  -0.3929-0.3929 0.1429  plane waves:     535
 k-point ** :   0.1786 0.1786 0.1786  plane waves:     529
 k-point ** :   0.2143 0.1786 0.1786  plane waves:     523
 k-point ** :   0.2500 0.1786 0.1786  plane waves:     525
 k-point ** :   0.2857 0.1786 0.1786  plane waves:     529
 k-point ** :   0.3214 0.1786 0.1786  plane waves:     532
 k-point ** :  -0.1786 0.1786 0.1786  plane waves:     538
 k-point ** :   0.2143 0.2143 0.1786  plane waves:     527
 k-point ** :   0.2500 0.2143 0.1786  plane waves:     528
 k-point ** :   0.2857 0.2143 0.1786  plane waves:     534
 k-point ** :  -0.2143 0.2143 0.1786  plane waves:     542
 k-point ** :   0.2500 0.2500 0.1786  plane waves:     535
 k-point ** :   0.2857 0.2500 0.1786  plane waves:     534
 k-point ** :  -0.2500 0.2500 0.1786  plane waves:     538
 k-point ** :  -0.2143 0.2500 0.1786  plane waves:     540
 k-point ** :  -0.2857 0.2857 0.1786  plane waves:     536
 k-point ** :  -0.2500 0.2857 0.1786  plane waves:     535
 k-point ** :  -0.3214 0.3214 0.1786  plane waves:     539
 k-point ** :  -0.2857 0.3214 0.1786  plane waves:     536
 k-point ** :  -0.2500 0.3214 0.1786  plane waves:     538
 k-point ** :  -0.3571 0.3571 0.1786  plane waves:     542
 k-point ** :  -0.3214 0.3571 0.1786  plane waves:     538
 k-point ** :  -0.2857 0.3571 0.1786  plane waves:     535
 k-point ** :  -0.3929 0.3929 0.1786  plane waves:     541
 k-point ** :  -0.3571 0.3929 0.1786  plane waves:     537
 k-point ** :  -0.3214 0.3929 0.1786  plane waves:     534
 k-point ** :  -0.2857 0.3929 0.1786  plane waves:     530
 k-point ** :  -0.4286 0.4286 0.1786  plane waves:     534
 k-point ** :  -0.3929 0.4286 0.1786  plane waves:     534
 k-point ** :  -0.3571 0.4286 0.1786  plane waves:     533
 k-point ** :  -0.3214 0.4286 0.1786  plane waves:     533
 k-point ** :  -0.4643 0.4643 0.1786  plane waves:     530
 k-point ** :  -0.4286 0.4643 0.1786  plane waves:     532
 k-point ** :  -0.3929 0.4643 0.1786  plane waves:     528
 k-point ** :  -0.3571 0.4643 0.1786  plane waves:     533
 k-point ** :  -0.3214 0.4643 0.1786  plane waves:     532
 k-point ** :   0.5000 0.5000 0.1786  plane waves:     526
 k-point ** :  -0.4643 0.5000 0.1786  plane waves:     532
 k-point ** :  -0.4286 0.5000 0.1786  plane waves:     530
 k-point ** :  -0.3929 0.5000 0.1786  plane waves:     533
 k-point ** :  -0.3571 0.5000 0.1786  plane waves:     529
 k-point ** :  -0.4643-0.4643 0.1786  plane waves:     531
 k-point ** :  -0.4286-0.4643 0.1786  plane waves:     529
 k-point ** :  -0.3929-0.4643 0.1786  plane waves:     529
 k-point ** :  -0.3571-0.4643 0.1786  plane waves:     527
 k-point ** :  -0.4286-0.4286 0.1786  plane waves:     531
 k-point ** :  -0.3929-0.4286 0.1786  plane waves:     529
 k-point ** :  -0.3929-0.3929 0.1786  plane waves:     529
 k-point ** :   0.2143 0.2143 0.2143  plane waves:     529
 k-point ** :   0.2500 0.2143 0.2143  plane waves:     535
 k-point ** :   0.2857 0.2143 0.2143  plane waves:     532
 k-point ** :  -0.2143 0.2143 0.2143  plane waves:     538
 k-point ** :   0.2500 0.2500 0.2143  plane waves:     532
 k-point ** :  -0.2500 0.2500 0.2143  plane waves:     536
 k-point ** :  -0.2857 0.2857 0.2143  plane waves:     534
 k-point ** :  -0.2500 0.2857 0.2143  plane waves:     532
 k-point ** :  -0.3214 0.3214 0.2143  plane waves:     535
 k-point ** :  -0.2857 0.3214 0.2143  plane waves:     533
 k-point ** :  -0.3571 0.3571 0.2143  plane waves:     539
 k-point ** :  -0.3214 0.3571 0.2143  plane waves:     533
 k-point ** :  -0.2857 0.3571 0.2143  plane waves:     534
 k-point ** :  -0.3929 0.3929 0.2143  plane waves:     534
 k-point ** :  -0.3571 0.3929 0.2143  plane waves:     532
 k-point ** :  -0.3214 0.3929 0.2143  plane waves:     531
 k-point ** :  -0.4286 0.4286 0.2143  plane waves:     535
 k-point ** :  -0.3929 0.4286 0.2143  plane waves:     533
 k-point ** :  -0.3571 0.4286 0.2143  plane waves:     530
 k-point ** :  -0.3214 0.4286 0.2143  plane waves:     528
 k-point ** :  -0.4643 0.4643 0.2143  plane waves:     533
 k-point ** :  -0.4286 0.4643 0.2143  plane waves:     532
 k-point ** :  -0.3929 0.4643 0.2143  plane waves:     527
 k-point ** :  -0.3571 0.4643 0.2143  plane waves:     527
 k-point ** :   0.5000 0.5000 0.2143  plane waves:     532
 k-point ** :  -0.4643 0.5000 0.2143  plane waves:     528
 k-point ** :  -0.4286 0.5000 0.2143  plane waves:     527
 k-point ** :  -0.3929 0.5000 0.2143  plane waves:     528
 k-point ** :  -0.3571 0.5000 0.2143  plane waves:     524
 k-point ** :  -0.4643-0.4643 0.2143  plane waves:     529
 k-point ** :  -0.4286-0.4643 0.2143  plane waves:     527
 k-point ** :  -0.3929-0.4643 0.2143  plane waves:     530
 k-point ** :  -0.4286-0.4286 0.2143  plane waves:     527
 k-point ** :  -0.3929-0.4286 0.2143  plane waves:     529
 k-point ** :   0.2500 0.2500 0.2500  plane waves:     532
 k-point ** :  -0.2500 0.2500 0.2500  plane waves:     522
 k-point ** :  -0.2857 0.2857 0.2500  plane waves:     534
 k-point ** :  -0.3214 0.3214 0.2500  plane waves:     533
 k-point ** :  -0.2857 0.3214 0.2500  plane waves:     534
 k-point ** :  -0.3571 0.3571 0.2500  plane waves:     533
 k-point ** :  -0.3214 0.3571 0.2500  plane waves:     529
 k-point ** :  -0.3929 0.3929 0.2500  plane waves:     531
 k-point ** :  -0.3571 0.3929 0.2500  plane waves:     528
 k-point ** :  -0.3214 0.3929 0.2500  plane waves:     528
 k-point ** :  -0.4286 0.4286 0.2500  plane waves:     529
 k-point ** :  -0.3929 0.4286 0.2500  plane waves:     530
 k-point ** :  -0.3571 0.4286 0.2500  plane waves:     527
 k-point ** :  -0.4643 0.4643 0.2500  plane waves:     526
 k-point ** :  -0.4286 0.4643 0.2500  plane waves:     529
 k-point ** :  -0.3929 0.4643 0.2500  plane waves:     524
 k-point ** :  -0.3571 0.4643 0.2500  plane waves:     526
 k-point ** :   0.5000 0.5000 0.2500  plane waves:     524
 k-point ** :  -0.4643 0.5000 0.2500  plane waves:     526
 k-point ** :  -0.4286 0.5000 0.2500  plane waves:     530
 k-point ** :  -0.3929 0.5000 0.2500  plane waves:     526
 k-point ** :  -0.4643-0.4643 0.2500  plane waves:     533
 k-point ** :  -0.4286-0.4643 0.2500  plane waves:     529
 k-point ** :  -0.3929-0.4643 0.2500  plane waves:     531
 k-point ** :  -0.4286-0.4286 0.2500  plane waves:     529
 k-point ** :  -0.2857 0.2857 0.2857  plane waves:     530
 k-point ** :  -0.3214 0.3214 0.2857  plane waves:     528
 k-point ** :  -0.3571 0.3571 0.2857  plane waves:     526
 k-point ** :  -0.3214 0.3571 0.2857  plane waves:     526
 k-point ** :  -0.3929 0.3929 0.2857  plane waves:     528
 k-point ** :  -0.3571 0.3929 0.2857  plane waves:     523
 k-point ** :  -0.4286 0.4286 0.2857  plane waves:     529
 k-point ** :  -0.3929 0.4286 0.2857  plane waves:     525
 k-point ** :  -0.3571 0.4286 0.2857  plane waves:     524
 k-point ** :  -0.4643 0.4643 0.2857  plane waves:     530
 k-point ** :  -0.4286 0.4643 0.2857  plane waves:     526
 k-point ** :  -0.3929 0.4643 0.2857  plane waves:     524
 k-point ** :   0.5000 0.5000 0.2857  plane waves:     530
 k-point ** :  -0.4643 0.5000 0.2857  plane waves:     527
 k-point ** :  -0.4286 0.5000 0.2857  plane waves:     528
 k-point ** :  -0.3929 0.5000 0.2857  plane waves:     528
 k-point ** :  -0.4643-0.4643 0.2857  plane waves:     526
 k-point ** :  -0.4286-0.4643 0.2857  plane waves:     525
 k-point ** :  -0.4286-0.4286 0.2857  plane waves:     523
 k-point ** :  -0.3214 0.3214 0.3214  plane waves:     526
 k-point ** :  -0.3571 0.3571 0.3214  plane waves:     524
 k-point ** :  -0.3929 0.3929 0.3214  plane waves:     524
 k-point ** :  -0.3571 0.3929 0.3214  plane waves:     521
 k-point ** :  -0.4286 0.4286 0.3214  plane waves:     524
 k-point ** :  -0.3929 0.4286 0.3214  plane waves:     524
 k-point ** :  -0.4643 0.4643 0.3214  plane waves:     527
 k-point ** :  -0.4286 0.4643 0.3214  plane waves:     524
 k-point ** :  -0.3929 0.4643 0.3214  plane waves:     526
 k-point ** :   0.5000 0.5000 0.3214  plane waves:     526
 k-point ** :  -0.4643 0.5000 0.3214  plane waves:     522
 k-point ** :  -0.4286 0.5000 0.3214  plane waves:     521
 k-point ** :  -0.4643-0.4643 0.3214  plane waves:     522
 k-point ** :  -0.4286-0.4643 0.3214  plane waves:     519
 k-point ** :  -0.3571 0.3571 0.3571  plane waves:     522
 k-point ** :  -0.3929 0.3929 0.3571  plane waves:     521
 k-point ** :  -0.4286 0.4286 0.3571  plane waves:     522
 k-point ** :  -0.3929 0.4286 0.3571  plane waves:     523
 k-point ** :  -0.4643 0.4643 0.3571  plane waves:     516
 k-point ** :  -0.4286 0.4643 0.3571  plane waves:     521
 k-point ** :   0.5000 0.5000 0.3571  plane waves:     522
 k-point ** :  -0.4643 0.5000 0.3571  plane waves:     518
 k-point ** :  -0.4286 0.5000 0.3571  plane waves:     517
 k-point ** :  -0.4643-0.4643 0.3571  plane waves:     518
 k-point ** :  -0.3929 0.3929 0.3929  plane waves:     518
 k-point ** :  -0.4286 0.4286 0.3929  plane waves:     518
 k-point ** :  -0.4643 0.4643 0.3929  plane waves:     514
 k-point ** :  -0.4286 0.4643 0.3929  plane waves:     515
 k-point ** :   0.5000 0.5000 0.3929  plane waves:     514
 k-point ** :  -0.4643 0.5000 0.3929  plane waves:     516
 k-point ** :  -0.4643-0.4643 0.3929  plane waves:     511
 k-point ** :  -0.4286 0.4286 0.4286  plane waves:     514
 k-point ** :  -0.4643 0.4643 0.4286  plane waves:     508
 k-point ** :   0.5000 0.5000 0.4286  plane waves:     506
 k-point ** :  -0.4643 0.5000 0.4286  plane waves:     501
 k-point ** :  -0.4643 0.4643 0.4643  plane waves:     490
 k-point ** :   0.5000 0.5000 0.4643  plane waves:     490
 k-point ** :   0.5000 0.5000 0.5000  plane waves:     490

 maximum number of plane-waves:       555
 maximum index in each direction: 
   IXMAX=    5   IYMAX=    5   IZMAX=    5
   IXMIN=   -5   IYMIN=   -5   IZMIN=   -5


 total amount of memory used by VASP MPI-rank0   138767. kBytes
=======================================================================

   base      :      30000. kBytes
   nonl-proj :      49878. kBytes
   grid      :       1666. kBytes
   one-center:         15. kBytes
   wavefun   :      57208. kBytes
 
     INWAV:  cpu time    0.0000: real time    0.0000
 Broyden mixing: mesh for mixing (old mesh)
   NGX = 11   NGY = 11   NGZ = 11
  (NGX  = 28   NGY  = 28   NGZ  = 28)
  gives a total of   1331 points

 initial charge density was supplied:
 charge density of overlapping atoms calculated
 number of electron      12.0000000 magnetization 
 keeping initial charge density in first step


--------------------------------------------------------------------------------------------------------


 Maximum index for augmentation-charges         5817 (set IRDMAX)


--------------------------------------------------------------------------------------------------------


 First call to EWALD:  gamma=   0.680
 Maximum number of real-space cells 3x 3x 3
 Maximum number of reciprocal cells 3x 3x 3

    FEWALD:  cpu time    0.0054: real time    0.0007


--------------------------------------- Iteration      1(   1)  ---------------------------------------


    POTLOK:  cpu time    0.0424: real time    0.0053
    SETDIJ:  cpu time    0.0124: real time    0.0016
