 vasp.5.4.4.18Apr17-6-g9f103f2a35 (build Apr 14 2022 13:33:42) complex          
  
 POSCAR found type information on POSCAR  Ti Nb
 POSCAR found :  2 types and       3 ions
