<?xml version="1.0" encoding="ISO-8859-1"?>
<modeling>
 <generator>
  <i name="program" type="string">vasp </i>
  <i name="version" type="string">5.4.4.18Apr17-6-g9f103f2a35  </i>
  <i name="subversion" type="string">(build Apr 14 2022 13:33:42) complex            serial </i>
  <i name="platform" type="string">LinuxIFC </i>
  <i name="date" type="string">2025 02 28 </i>
  <i name="time" type="string">18:00:57 </i>
 </generator>
 <incar>
  <i type="int" name="ISTART">     0</i>
  <i type="string" name="PREC">high</i>
  <i type="string" name="ALGO"> Normal</i>
  <i type="int" name="ICHARG">     2</i>
  <i type="int" name="NELM">   200</i>
  <i type="int" name="NELMIN">     5</i>
  <i name="EDIFF">      0.00000100</i>
  <i name="SYMPREC">      0.00010000</i>
  <i name="ENCUT">    560.00000000</i>
  <i type="logical" name="LREAL"> F  </i>
  <i type="int" name="ISMEAR">     1</i>
  <i name="SIGMA">      0.16000000</i>
  <i name="KSPACING">      0.10000000</i>
  <i type="logical" name="LWAVE"> F  </i>
  <i type="logical" name="LCHARG"> F  </i>
  <v type="int" name="KPOINT_BSE">    -1     0     0     0</v>
  <i type="int" name="NELM">   200</i>
  <i type="string" name="GGA"> PE</i>
 </incar>
 <structure name="primitive_cell" >
  <crystal>
   <varray name="basis" >
    <v>      -1.64094825       1.64094825       1.64094825 </v>
    <v>       1.64094825      -1.64094825       1.64094825 </v>
    <v>       1.64094825       1.64094825      -1.64094825 </v>
   </varray>
   <i name="volume">     17.67439861 </i>
   <varray name="rec_basis" >
    <v>       0.00000000       0.30470187       0.30470187 </v>
    <v>       0.30470187       0.00000000       0.30470187 </v>
    <v>       0.30470187       0.30470187       0.00000000 </v>
   </varray>
  </crystal>
  <varray name="positions" >
   <v>       0.00000000       0.00000000       0.00000000 </v>
  </varray>
 </structure>
 <varray name="primitive_index" >
  <v type="int" >        1 </v>
 </varray>
 <kpoints>
  <generation param="Gamma">
   <v type="int" name="divisions">      28       28       28 </v>
   <v name="usershift">      0.00000000       0.00000000       0.00000000 </v>
   <v name="genvec1">      0.03571429       0.00000000       0.00000000 </v>
   <v name="genvec2">      0.00000000       0.03571429       0.00000000 </v>
   <v name="genvec3">      0.00000000       0.00000000       0.03571429 </v>
   <v name="shift">      0.00000000       0.00000000       0.00000000 </v>
  </generation>
  <varray name="kpointlist" >
   <v>       0.00000000       0.00000000       0.00000000 </v>
   <v>       0.03571429       0.00000000       0.00000000 </v>
   <v>       0.07142857       0.00000000       0.00000000 </v>
   <v>       0.10714286       0.00000000       0.00000000 </v>
   <v>       0.14285714       0.00000000       0.00000000 </v>
   <v>       0.17857143       0.00000000       0.00000000 </v>
   <v>       0.21428571       0.00000000       0.00000000 </v>
   <v>       0.25000000       0.00000000       0.00000000 </v>
   <v>       0.28571429       0.00000000       0.00000000 </v>
   <v>       0.32142857       0.00000000       0.00000000 </v>
   <v>       0.35714286       0.00000000       0.00000000 </v>
   <v>       0.39285714       0.00000000       0.00000000 </v>
   <v>       0.42857143       0.00000000       0.00000000 </v>
   <v>       0.46428571       0.00000000       0.00000000 </v>
   <v>       0.50000000       0.00000000       0.00000000 </v>
   <v>       0.03571429       0.03571429       0.00000000 </v>
   <v>       0.07142857       0.03571429       0.00000000 </v>
   <v>       0.10714286       0.03571429       0.00000000 </v>
   <v>       0.14285714       0.03571429       0.00000000 </v>
   <v>       0.17857143       0.03571429      -0.00000000 </v>
   <v>       0.21428571       0.03571429       0.00000000 </v>
   <v>       0.25000000       0.03571429       0.00000000 </v>
   <v>       0.28571429       0.03571429      -0.00000000 </v>
   <v>       0.32142857       0.03571429       0.00000000 </v>
   <v>       0.35714286       0.03571429       0.00000000 </v>
   <v>       0.39285714       0.03571429      -0.00000000 </v>
   <v>       0.42857143       0.03571429       0.00000000 </v>
   <v>       0.46428571       0.03571429       0.00000000 </v>
   <v>       0.07142857       0.07142857       0.00000000 </v>
   <v>       0.10714286       0.07142857      -0.00000000 </v>
   <v>       0.14285714       0.07142857       0.00000000 </v>
   <v>       0.17857143       0.07142857       0.00000000 </v>
   <v>       0.21428571       0.07142857       0.00000000 </v>
   <v>       0.25000000       0.07142857      -0.00000000 </v>
   <v>       0.28571429       0.07142857      -0.00000000 </v>
   <v>       0.32142857       0.07142857       0.00000000 </v>
   <v>       0.35714286       0.07142857      -0.00000000 </v>
   <v>       0.39285714       0.07142857       0.00000000 </v>
   <v>       0.42857143       0.07142857       0.00000000 </v>
   <v>       0.46428571       0.07142857       0.00000000 </v>
   <v>       0.10714286       0.10714286       0.00000000 </v>
   <v>       0.14285714       0.10714286       0.00000000 </v>
   <v>       0.17857143       0.10714286       0.00000000 </v>
   <v>       0.21428571       0.10714286       0.00000000 </v>
   <v>       0.25000000       0.10714286      -0.00000000 </v>
   <v>       0.28571429       0.10714286      -0.00000000 </v>
   <v>       0.32142857       0.10714286      -0.00000000 </v>
   <v>       0.35714286       0.10714286       0.00000000 </v>
   <v>       0.39285714       0.10714286       0.00000000 </v>
   <v>       0.42857143       0.10714286       0.00000000 </v>
   <v>       0.14285714       0.14285714       0.00000000 </v>
   <v>       0.17857143       0.14285714       0.00000000 </v>
   <v>       0.21428571       0.14285714       0.00000000 </v>
   <v>       0.25000000       0.14285714      -0.00000000 </v>
   <v>       0.28571429       0.14285714      -0.00000000 </v>
   <v>       0.32142857       0.14285714       0.00000000 </v>
   <v>       0.35714286       0.14285714       0.00000000 </v>
   <v>       0.39285714       0.14285714       0.00000000 </v>
   <v>       0.42857143       0.14285714       0.00000000 </v>
   <v>       0.17857143       0.17857143       0.00000000 </v>
   <v>       0.21428571       0.17857143       0.00000000 </v>
   <v>       0.25000000       0.17857143      -0.00000000 </v>
   <v>       0.28571429       0.17857143       0.00000000 </v>
   <v>       0.32142857       0.17857143       0.00000000 </v>
   <v>       0.35714286       0.17857143       0.00000000 </v>
   <v>       0.39285714       0.17857143       0.00000000 </v>
   <v>       0.21428571       0.21428571       0.00000000 </v>
   <v>       0.25000000       0.21428571       0.00000000 </v>
   <v>       0.28571429       0.21428571       0.00000000 </v>
   <v>       0.32142857       0.21428571      -0.00000000 </v>
   <v>       0.35714286       0.21428571       0.00000000 </v>
   <v>       0.39285714       0.21428571       0.00000000 </v>
   <v>       0.25000000       0.25000000       0.00000000 </v>
   <v>       0.28571429       0.25000000      -0.00000000 </v>
   <v>       0.32142857       0.25000000       0.00000000 </v>
   <v>       0.35714286       0.25000000       0.00000000 </v>
   <v>       0.28571429       0.28571429       0.00000000 </v>
   <v>       0.32142857       0.28571429       0.00000000 </v>
   <v>       0.35714286       0.28571429      -0.00000000 </v>
   <v>       0.32142857       0.32142857       0.00000000 </v>
   <v>       0.03571429       0.03571429       0.03571429 </v>
   <v>       0.07142857       0.03571429       0.03571429 </v>
   <v>       0.10714286       0.03571429       0.03571429 </v>
   <v>       0.14285714       0.03571429       0.03571429 </v>
   <v>       0.17857143       0.03571429       0.03571429 </v>
   <v>       0.21428571       0.03571429       0.03571429 </v>
   <v>       0.25000000       0.03571429       0.03571429 </v>
   <v>       0.28571429       0.03571429       0.03571429 </v>
   <v>       0.32142857       0.03571429       0.03571429 </v>
   <v>       0.35714286       0.03571429       0.03571429 </v>
   <v>       0.39285714       0.03571429       0.03571429 </v>
   <v>       0.42857143       0.03571429       0.03571429 </v>
   <v>       0.46428571       0.03571429       0.03571429 </v>
   <v>      -0.03571429       0.03571429       0.03571429 </v>
   <v>       0.07142857       0.07142857       0.03571429 </v>
   <v>       0.10714286       0.07142857       0.03571429 </v>
   <v>       0.14285714       0.07142857       0.03571429 </v>
   <v>       0.17857143       0.07142857       0.03571429 </v>
   <v>       0.21428571       0.07142857       0.03571429 </v>
   <v>       0.25000000       0.07142857       0.03571429 </v>
   <v>       0.28571429       0.07142857       0.03571429 </v>
   <v>       0.32142857       0.07142857       0.03571429 </v>
   <v>       0.35714286       0.07142857       0.03571429 </v>
   <v>       0.39285714       0.07142857       0.03571429 </v>
   <v>       0.42857143       0.07142857       0.03571429 </v>
   <v>      -0.07142857       0.07142857       0.03571429 </v>
   <v>       0.10714286       0.10714286       0.03571429 </v>
   <v>       0.14285714       0.10714286       0.03571429 </v>
   <v>       0.17857143       0.10714286       0.03571429 </v>
   <v>       0.21428571       0.10714286       0.03571429 </v>
   <v>       0.25000000       0.10714286       0.03571429 </v>
   <v>       0.28571429       0.10714286       0.03571429 </v>
   <v>       0.32142857       0.10714286       0.03571429 </v>
   <v>       0.35714286       0.10714286       0.03571429 </v>
   <v>       0.39285714       0.10714286       0.03571429 </v>
   <v>       0.42857143       0.10714286       0.03571429 </v>
   <v>      -0.10714286       0.10714286       0.03571429 </v>
   <v>      -0.07142857       0.10714286       0.03571429 </v>
   <v>       0.14285714       0.14285714       0.03571429 </v>
   <v>       0.17857143       0.14285714       0.03571429 </v>
   <v>       0.21428571       0.14285714       0.03571429 </v>
   <v>       0.25000000       0.14285714       0.03571429 </v>
   <v>       0.28571429       0.14285714       0.03571429 </v>
   <v>       0.32142857       0.14285714       0.03571429 </v>
   <v>       0.35714286       0.14285714       0.03571429 </v>
   <v>       0.39285714       0.14285714       0.03571429 </v>
   <v>      -0.14285714       0.14285714       0.03571429 </v>
   <v>      -0.10714286       0.14285714       0.03571429 </v>
   <v>       0.17857143       0.17857143       0.03571429 </v>
   <v>       0.21428571       0.17857143       0.03571429 </v>
   <v>       0.25000000       0.17857143       0.03571429 </v>
   <v>       0.28571429       0.17857143       0.03571429 </v>
   <v>       0.32142857       0.17857143       0.03571429 </v>
   <v>       0.35714286       0.17857143       0.03571429 </v>
   <v>       0.39285714       0.17857143       0.03571429 </v>
   <v>      -0.17857143       0.17857143       0.03571429 </v>
   <v>      -0.14285714       0.17857143       0.03571429 </v>
   <v>      -0.10714286       0.17857143       0.03571429 </v>
   <v>       0.21428571       0.21428571       0.03571429 </v>
   <v>       0.25000000       0.21428571       0.03571429 </v>
   <v>       0.28571429       0.21428571       0.03571429 </v>
   <v>       0.32142857       0.21428571       0.03571429 </v>
   <v>       0.35714286       0.21428571       0.03571429 </v>
   <v>      -0.21428571       0.21428571       0.03571429 </v>
   <v>      -0.17857143       0.21428571       0.03571429 </v>
   <v>      -0.14285714       0.21428571       0.03571429 </v>
   <v>       0.25000000       0.25000000       0.03571429 </v>
   <v>       0.28571429       0.25000000       0.03571429 </v>
   <v>       0.32142857       0.25000000       0.03571429 </v>
   <v>       0.35714286       0.25000000       0.03571429 </v>
   <v>      -0.25000000       0.25000000       0.03571429 </v>
   <v>      -0.21428571       0.25000000       0.03571429 </v>
   <v>      -0.17857143       0.25000000       0.03571429 </v>
   <v>      -0.14285714       0.25000000       0.03571429 </v>
   <v>       0.28571429       0.28571429       0.03571429 </v>
   <v>       0.32142857       0.28571429       0.03571429 </v>
   <v>      -0.28571429       0.28571429       0.03571429 </v>
   <v>      -0.25000000       0.28571429       0.03571429 </v>
   <v>      -0.21428571       0.28571429       0.03571429 </v>
   <v>      -0.17857143       0.28571429       0.03571429 </v>
   <v>       0.32142857       0.32142857       0.03571429 </v>
   <v>      -0.32142857       0.32142857       0.03571429 </v>
   <v>      -0.28571429       0.32142857       0.03571429 </v>
   <v>      -0.25000000       0.32142857       0.03571429 </v>
   <v>      -0.21428571       0.32142857       0.03571429 </v>
   <v>      -0.17857143       0.32142857       0.03571429 </v>
   <v>      -0.35714286       0.35714286       0.03571429 </v>
   <v>      -0.32142857       0.35714286       0.03571429 </v>
   <v>      -0.28571429       0.35714286       0.03571429 </v>
   <v>      -0.25000000       0.35714286       0.03571429 </v>
   <v>      -0.21428571       0.35714286       0.03571429 </v>
   <v>      -0.39285714       0.39285714       0.03571429 </v>
   <v>      -0.35714286       0.39285714       0.03571429 </v>
   <v>      -0.32142857       0.39285714       0.03571429 </v>
   <v>      -0.28571429       0.39285714       0.03571429 </v>
   <v>      -0.25000000       0.39285714       0.03571429 </v>
   <v>      -0.21428571       0.39285714       0.03571429 </v>
   <v>      -0.42857143       0.42857143       0.03571429 </v>
   <v>      -0.39285714       0.42857143       0.03571429 </v>
   <v>      -0.35714286       0.42857143       0.03571429 </v>
   <v>      -0.32142857       0.42857143       0.03571429 </v>
   <v>      -0.28571429       0.42857143       0.03571429 </v>
   <v>      -0.25000000       0.42857143       0.03571429 </v>
   <v>      -0.46428571       0.46428571       0.03571429 </v>
   <v>      -0.42857143       0.46428571       0.03571429 </v>
   <v>      -0.39285714       0.46428571       0.03571429 </v>
   <v>      -0.35714286       0.46428571       0.03571429 </v>
   <v>      -0.32142857       0.46428571       0.03571429 </v>
   <v>      -0.28571429       0.46428571       0.03571429 </v>
   <v>      -0.25000000       0.46428571       0.03571429 </v>
   <v>       0.50000000       0.50000000       0.03571429 </v>
   <v>      -0.46428571       0.50000000       0.03571429 </v>
   <v>      -0.42857143       0.50000000       0.03571429 </v>
   <v>      -0.39285714       0.50000000       0.03571429 </v>
   <v>      -0.35714286       0.50000000       0.03571429 </v>
   <v>      -0.32142857       0.50000000       0.03571429 </v>
   <v>      -0.28571429       0.50000000       0.03571429 </v>
   <v>      -0.46428571      -0.46428571       0.03571429 </v>
   <v>      -0.42857143      -0.46428571       0.03571429 </v>
   <v>      -0.39285714      -0.46428571       0.03571429 </v>
   <v>      -0.35714286      -0.46428571       0.03571429 </v>
   <v>      -0.32142857      -0.46428571       0.03571429 </v>
   <v>      -0.28571429      -0.46428571       0.03571429 </v>
   <v>      -0.42857143      -0.42857143       0.03571429 </v>
   <v>      -0.39285714      -0.42857143       0.03571429 </v>
   <v>      -0.35714286      -0.42857143       0.03571429 </v>
   <v>      -0.32142857      -0.42857143       0.03571429 </v>
   <v>      -0.39285714      -0.39285714       0.03571429 </v>
   <v>      -0.35714286      -0.39285714       0.03571429 </v>
   <v>      -0.32142857      -0.39285714       0.03571429 </v>
   <v>      -0.35714286      -0.35714286       0.03571429 </v>
   <v>       0.07142857       0.07142857       0.07142857 </v>
   <v>       0.10714286       0.07142857       0.07142857 </v>
   <v>       0.14285714       0.07142857       0.07142857 </v>
   <v>       0.17857143       0.07142857       0.07142857 </v>
   <v>       0.21428571       0.07142857       0.07142857 </v>
   <v>       0.25000000       0.07142857       0.07142857 </v>
   <v>       0.28571429       0.07142857       0.07142857 </v>
   <v>       0.32142857       0.07142857       0.07142857 </v>
   <v>       0.35714286       0.07142857       0.07142857 </v>
   <v>       0.39285714       0.07142857       0.07142857 </v>
   <v>       0.42857143       0.07142857       0.07142857 </v>
   <v>      -0.07142857       0.07142857       0.07142857 </v>
   <v>       0.10714286       0.10714286       0.07142857 </v>
   <v>       0.14285714       0.10714286       0.07142857 </v>
   <v>       0.17857143       0.10714286       0.07142857 </v>
   <v>       0.21428571       0.10714286       0.07142857 </v>
   <v>       0.25000000       0.10714286       0.07142857 </v>
   <v>       0.28571429       0.10714286       0.07142857 </v>
   <v>       0.32142857       0.10714286       0.07142857 </v>
   <v>       0.35714286       0.10714286       0.07142857 </v>
   <v>       0.39285714       0.10714286       0.07142857 </v>
   <v>      -0.10714286       0.10714286       0.07142857 </v>
   <v>       0.14285714       0.14285714       0.07142857 </v>
   <v>       0.17857143       0.14285714       0.07142857 </v>
   <v>       0.21428571       0.14285714       0.07142857 </v>
   <v>       0.25000000       0.14285714       0.07142857 </v>
   <v>       0.28571429       0.14285714       0.07142857 </v>
   <v>       0.32142857       0.14285714       0.07142857 </v>
   <v>       0.35714286       0.14285714       0.07142857 </v>
   <v>       0.39285714       0.14285714       0.07142857 </v>
   <v>      -0.14285714       0.14285714       0.07142857 </v>
   <v>      -0.10714286       0.14285714       0.07142857 </v>
   <v>       0.17857143       0.17857143       0.07142857 </v>
   <v>       0.21428571       0.17857143       0.07142857 </v>
   <v>       0.25000000       0.17857143       0.07142857 </v>
   <v>       0.28571429       0.17857143       0.07142857 </v>
   <v>       0.32142857       0.17857143       0.07142857 </v>
   <v>       0.35714286       0.17857143       0.07142857 </v>
   <v>      -0.17857143       0.17857143       0.07142857 </v>
   <v>      -0.14285714       0.17857143       0.07142857 </v>
   <v>       0.21428571       0.21428571       0.07142857 </v>
   <v>       0.25000000       0.21428571       0.07142857 </v>
   <v>       0.28571429       0.21428571       0.07142857 </v>
   <v>       0.32142857       0.21428571       0.07142857 </v>
   <v>       0.35714286       0.21428571       0.07142857 </v>
   <v>      -0.21428571       0.21428571       0.07142857 </v>
   <v>      -0.17857143       0.21428571       0.07142857 </v>
   <v>      -0.14285714       0.21428571       0.07142857 </v>
   <v>       0.25000000       0.25000000       0.07142857 </v>
   <v>       0.28571429       0.25000000       0.07142857 </v>
   <v>       0.32142857       0.25000000       0.07142857 </v>
   <v>      -0.25000000       0.25000000       0.07142857 </v>
   <v>      -0.21428571       0.25000000       0.07142857 </v>
   <v>      -0.17857143       0.25000000       0.07142857 </v>
   <v>       0.28571429       0.28571429       0.07142857 </v>
   <v>       0.32142857       0.28571429       0.07142857 </v>
   <v>      -0.28571429       0.28571429       0.07142857 </v>
   <v>      -0.25000000       0.28571429       0.07142857 </v>
   <v>      -0.21428571       0.28571429       0.07142857 </v>
   <v>      -0.17857143       0.28571429       0.07142857 </v>
   <v>      -0.32142857       0.32142857       0.07142857 </v>
   <v>      -0.28571429       0.32142857       0.07142857 </v>
   <v>      -0.25000000       0.32142857       0.07142857 </v>
   <v>      -0.21428571       0.32142857       0.07142857 </v>
   <v>      -0.35714286       0.35714286       0.07142857 </v>
   <v>      -0.32142857       0.35714286       0.07142857 </v>
   <v>      -0.28571429       0.35714286       0.07142857 </v>
   <v>      -0.25000000       0.35714286       0.07142857 </v>
   <v>      -0.21428571       0.35714286       0.07142857 </v>
   <v>      -0.39285714       0.39285714       0.07142857 </v>
   <v>      -0.35714286       0.39285714       0.07142857 </v>
   <v>      -0.32142857       0.39285714       0.07142857 </v>
   <v>      -0.28571429       0.39285714       0.07142857 </v>
   <v>      -0.25000000       0.39285714       0.07142857 </v>
   <v>      -0.42857143       0.42857143       0.07142857 </v>
   <v>      -0.39285714       0.42857143       0.07142857 </v>
   <v>      -0.35714286       0.42857143       0.07142857 </v>
   <v>      -0.32142857       0.42857143       0.07142857 </v>
   <v>      -0.28571429       0.42857143       0.07142857 </v>
   <v>      -0.25000000       0.42857143       0.07142857 </v>
   <v>      -0.46428571       0.46428571       0.07142857 </v>
   <v>      -0.42857143       0.46428571       0.07142857 </v>
   <v>      -0.39285714       0.46428571       0.07142857 </v>
   <v>      -0.35714286       0.46428571       0.07142857 </v>
   <v>      -0.32142857       0.46428571       0.07142857 </v>
   <v>      -0.28571429       0.46428571       0.07142857 </v>
   <v>       0.50000000       0.50000000       0.07142857 </v>
   <v>      -0.46428571       0.50000000       0.07142857 </v>
   <v>      -0.42857143       0.50000000       0.07142857 </v>
   <v>      -0.39285714       0.50000000       0.07142857 </v>
   <v>      -0.35714286       0.50000000       0.07142857 </v>
   <v>      -0.32142857       0.50000000       0.07142857 </v>
   <v>      -0.28571429       0.50000000       0.07142857 </v>
   <v>      -0.46428571      -0.46428571       0.07142857 </v>
   <v>      -0.42857143      -0.46428571       0.07142857 </v>
   <v>      -0.39285714      -0.46428571       0.07142857 </v>
   <v>      -0.35714286      -0.46428571       0.07142857 </v>
   <v>      -0.32142857      -0.46428571       0.07142857 </v>
   <v>      -0.42857143      -0.42857143       0.07142857 </v>
   <v>      -0.39285714      -0.42857143       0.07142857 </v>
   <v>      -0.35714286      -0.42857143       0.07142857 </v>
   <v>      -0.32142857      -0.42857143       0.07142857 </v>
   <v>      -0.39285714      -0.39285714       0.07142857 </v>
   <v>      -0.35714286      -0.39285714       0.07142857 </v>
   <v>      -0.35714286      -0.35714286       0.07142857 </v>
   <v>       0.10714286       0.10714286       0.10714286 </v>
   <v>       0.14285714       0.10714286       0.10714286 </v>
   <v>       0.17857143       0.10714286       0.10714286 </v>
   <v>       0.21428571       0.10714286       0.10714286 </v>
   <v>       0.25000000       0.10714286       0.10714286 </v>
   <v>       0.28571429       0.10714286       0.10714286 </v>
   <v>       0.32142857       0.10714286       0.10714286 </v>
   <v>       0.35714286       0.10714286       0.10714286 </v>
   <v>       0.39285714       0.10714286       0.10714286 </v>
   <v>      -0.10714286       0.10714286       0.10714286 </v>
   <v>       0.14285714       0.14285714       0.10714286 </v>
   <v>       0.17857143       0.14285714       0.10714286 </v>
   <v>       0.21428571       0.14285714       0.10714286 </v>
   <v>       0.25000000       0.14285714       0.10714286 </v>
   <v>       0.28571429       0.14285714       0.10714286 </v>
   <v>       0.32142857       0.14285714       0.10714286 </v>
   <v>       0.35714286       0.14285714       0.10714286 </v>
   <v>      -0.14285714       0.14285714       0.10714286 </v>
   <v>       0.17857143       0.17857143       0.10714286 </v>
   <v>       0.21428571       0.17857143       0.10714286 </v>
   <v>       0.25000000       0.17857143       0.10714286 </v>
   <v>       0.28571429       0.17857143       0.10714286 </v>
   <v>       0.32142857       0.17857143       0.10714286 </v>
   <v>       0.35714286       0.17857143       0.10714286 </v>
   <v>      -0.17857143       0.17857143       0.10714286 </v>
   <v>      -0.14285714       0.17857143       0.10714286 </v>
   <v>       0.21428571       0.21428571       0.10714286 </v>
   <v>       0.25000000       0.21428571       0.10714286 </v>
   <v>       0.28571429       0.21428571       0.10714286 </v>
   <v>       0.32142857       0.21428571       0.10714286 </v>
   <v>      -0.21428571       0.21428571       0.10714286 </v>
   <v>      -0.17857143       0.21428571       0.10714286 </v>
   <v>       0.25000000       0.25000000       0.10714286 </v>
   <v>       0.28571429       0.25000000       0.10714286 </v>
   <v>       0.32142857       0.25000000       0.10714286 </v>
   <v>      -0.25000000       0.25000000       0.10714286 </v>
   <v>      -0.21428571       0.25000000       0.10714286 </v>
   <v>      -0.17857143       0.25000000       0.10714286 </v>
   <v>       0.28571429       0.28571429       0.10714286 </v>
   <v>      -0.28571429       0.28571429       0.10714286 </v>
   <v>      -0.25000000       0.28571429       0.10714286 </v>
   <v>      -0.21428571       0.28571429       0.10714286 </v>
   <v>      -0.32142857       0.32142857       0.10714286 </v>
   <v>      -0.28571429       0.32142857       0.10714286 </v>
   <v>      -0.25000000       0.32142857       0.10714286 </v>
   <v>      -0.21428571       0.32142857       0.10714286 </v>
   <v>      -0.35714286       0.35714286       0.10714286 </v>
   <v>      -0.32142857       0.35714286       0.10714286 </v>
   <v>      -0.28571429       0.35714286       0.10714286 </v>
   <v>      -0.25000000       0.35714286       0.10714286 </v>
   <v>      -0.39285714       0.39285714       0.10714286 </v>
   <v>      -0.35714286       0.39285714       0.10714286 </v>
   <v>      -0.32142857       0.39285714       0.10714286 </v>
   <v>      -0.28571429       0.39285714       0.10714286 </v>
   <v>      -0.25000000       0.39285714       0.10714286 </v>
   <v>      -0.42857143       0.42857143       0.10714286 </v>
   <v>      -0.39285714       0.42857143       0.10714286 </v>
   <v>      -0.35714286       0.42857143       0.10714286 </v>
   <v>      -0.32142857       0.42857143       0.10714286 </v>
   <v>      -0.28571429       0.42857143       0.10714286 </v>
   <v>      -0.46428571       0.46428571       0.10714286 </v>
   <v>      -0.42857143       0.46428571       0.10714286 </v>
   <v>      -0.39285714       0.46428571       0.10714286 </v>
   <v>      -0.35714286       0.46428571       0.10714286 </v>
   <v>      -0.32142857       0.46428571       0.10714286 </v>
   <v>      -0.28571429       0.46428571       0.10714286 </v>
   <v>       0.50000000       0.50000000       0.10714286 </v>
   <v>      -0.46428571       0.50000000       0.10714286 </v>
   <v>      -0.42857143       0.50000000       0.10714286 </v>
   <v>      -0.39285714       0.50000000       0.10714286 </v>
   <v>      -0.35714286       0.50000000       0.10714286 </v>
   <v>      -0.32142857       0.50000000       0.10714286 </v>
   <v>      -0.46428571      -0.46428571       0.10714286 </v>
   <v>      -0.42857143      -0.46428571       0.10714286 </v>
   <v>      -0.39285714      -0.46428571       0.10714286 </v>
   <v>      -0.35714286      -0.46428571       0.10714286 </v>
   <v>      -0.32142857      -0.46428571       0.10714286 </v>
   <v>      -0.42857143      -0.42857143       0.10714286 </v>
   <v>      -0.39285714      -0.42857143       0.10714286 </v>
   <v>      -0.35714286      -0.42857143       0.10714286 </v>
   <v>      -0.39285714      -0.39285714       0.10714286 </v>
   <v>      -0.35714286      -0.39285714       0.10714286 </v>
   <v>       0.14285714       0.14285714       0.14285714 </v>
   <v>       0.17857143       0.14285714       0.14285714 </v>
   <v>       0.21428571       0.14285714       0.14285714 </v>
   <v>       0.25000000       0.14285714       0.14285714 </v>
   <v>       0.28571429       0.14285714       0.14285714 </v>
   <v>       0.32142857       0.14285714       0.14285714 </v>
   <v>       0.35714286       0.14285714       0.14285714 </v>
   <v>      -0.14285714       0.14285714       0.14285714 </v>
   <v>       0.17857143       0.17857143       0.14285714 </v>
   <v>       0.21428571       0.17857143       0.14285714 </v>
   <v>       0.25000000       0.17857143       0.14285714 </v>
   <v>       0.28571429       0.17857143       0.14285714 </v>
   <v>       0.32142857       0.17857143       0.14285714 </v>
   <v>      -0.17857143       0.17857143       0.14285714 </v>
   <v>       0.21428571       0.21428571       0.14285714 </v>
   <v>       0.25000000       0.21428571       0.14285714 </v>
   <v>       0.28571429       0.21428571       0.14285714 </v>
   <v>       0.32142857       0.21428571       0.14285714 </v>
   <v>      -0.21428571       0.21428571       0.14285714 </v>
   <v>      -0.17857143       0.21428571       0.14285714 </v>
   <v>       0.25000000       0.25000000       0.14285714 </v>
   <v>       0.28571429       0.25000000       0.14285714 </v>
   <v>      -0.25000000       0.25000000       0.14285714 </v>
   <v>      -0.21428571       0.25000000       0.14285714 </v>
   <v>       0.28571429       0.28571429       0.14285714 </v>
   <v>      -0.28571429       0.28571429       0.14285714 </v>
   <v>      -0.25000000       0.28571429       0.14285714 </v>
   <v>      -0.21428571       0.28571429       0.14285714 </v>
   <v>      -0.32142857       0.32142857       0.14285714 </v>
   <v>      -0.28571429       0.32142857       0.14285714 </v>
   <v>      -0.25000000       0.32142857       0.14285714 </v>
   <v>      -0.35714286       0.35714286       0.14285714 </v>
   <v>      -0.32142857       0.35714286       0.14285714 </v>
   <v>      -0.28571429       0.35714286       0.14285714 </v>
   <v>      -0.25000000       0.35714286       0.14285714 </v>
   <v>      -0.39285714       0.39285714       0.14285714 </v>
   <v>      -0.35714286       0.39285714       0.14285714 </v>
   <v>      -0.32142857       0.39285714       0.14285714 </v>
   <v>      -0.28571429       0.39285714       0.14285714 </v>
   <v>      -0.42857143       0.42857143       0.14285714 </v>
   <v>      -0.39285714       0.42857143       0.14285714 </v>
   <v>      -0.35714286       0.42857143       0.14285714 </v>
   <v>      -0.32142857       0.42857143       0.14285714 </v>
   <v>      -0.28571429       0.42857143       0.14285714 </v>
   <v>      -0.46428571       0.46428571       0.14285714 </v>
   <v>      -0.42857143       0.46428571       0.14285714 </v>
   <v>      -0.39285714       0.46428571       0.14285714 </v>
   <v>      -0.35714286       0.46428571       0.14285714 </v>
   <v>      -0.32142857       0.46428571       0.14285714 </v>
   <v>       0.50000000       0.50000000       0.14285714 </v>
   <v>      -0.46428571       0.50000000       0.14285714 </v>
   <v>      -0.42857143       0.50000000       0.14285714 </v>
   <v>      -0.39285714       0.50000000       0.14285714 </v>
   <v>      -0.35714286       0.50000000       0.14285714 </v>
   <v>      -0.32142857       0.50000000       0.14285714 </v>
   <v>      -0.46428571      -0.46428571       0.14285714 </v>
   <v>      -0.42857143      -0.46428571       0.14285714 </v>
   <v>      -0.39285714      -0.46428571       0.14285714 </v>
   <v>      -0.35714286      -0.46428571       0.14285714 </v>
   <v>      -0.42857143      -0.42857143       0.14285714 </v>
   <v>      -0.39285714      -0.42857143       0.14285714 </v>
   <v>      -0.35714286      -0.42857143       0.14285714 </v>
   <v>      -0.39285714      -0.39285714       0.14285714 </v>
   <v>       0.17857143       0.17857143       0.17857143 </v>
   <v>       0.21428571       0.17857143       0.17857143 </v>
   <v>       0.25000000       0.17857143       0.17857143 </v>
   <v>       0.28571429       0.17857143       0.17857143 </v>
   <v>       0.32142857       0.17857143       0.17857143 </v>
   <v>      -0.17857143       0.17857143       0.17857143 </v>
   <v>       0.21428571       0.21428571       0.17857143 </v>
   <v>       0.25000000       0.21428571       0.17857143 </v>
   <v>       0.28571429       0.21428571       0.17857143 </v>
   <v>      -0.21428571       0.21428571       0.17857143 </v>
   <v>       0.25000000       0.25000000       0.17857143 </v>
   <v>       0.28571429       0.25000000       0.17857143 </v>
   <v>      -0.25000000       0.25000000       0.17857143 </v>
   <v>      -0.21428571       0.25000000       0.17857143 </v>
   <v>      -0.28571429       0.28571429       0.17857143 </v>
   <v>      -0.25000000       0.28571429       0.17857143 </v>
   <v>      -0.32142857       0.32142857       0.17857143 </v>
   <v>      -0.28571429       0.32142857       0.17857143 </v>
   <v>      -0.25000000       0.32142857       0.17857143 </v>
   <v>      -0.35714286       0.35714286       0.17857143 </v>
   <v>      -0.32142857       0.35714286       0.17857143 </v>
   <v>      -0.28571429       0.35714286       0.17857143 </v>
   <v>      -0.39285714       0.39285714       0.17857143 </v>
   <v>      -0.35714286       0.39285714       0.17857143 </v>
   <v>      -0.32142857       0.39285714       0.17857143 </v>
   <v>      -0.28571429       0.39285714       0.17857143 </v>
   <v>      -0.42857143       0.42857143       0.17857143 </v>
   <v>      -0.39285714       0.42857143       0.17857143 </v>
   <v>      -0.35714286       0.42857143       0.17857143 </v>
   <v>      -0.32142857       0.42857143       0.17857143 </v>
   <v>      -0.46428571       0.46428571       0.17857143 </v>
   <v>      -0.42857143       0.46428571       0.17857143 </v>
   <v>      -0.39285714       0.46428571       0.17857143 </v>
   <v>      -0.35714286       0.46428571       0.17857143 </v>
   <v>      -0.32142857       0.46428571       0.17857143 </v>
   <v>       0.50000000       0.50000000       0.17857143 </v>
   <v>      -0.46428571       0.50000000       0.17857143 </v>
   <v>      -0.42857143       0.50000000       0.17857143 </v>
   <v>      -0.39285714       0.50000000       0.17857143 </v>
   <v>      -0.35714286       0.50000000       0.17857143 </v>
   <v>      -0.46428571      -0.46428571       0.17857143 </v>
   <v>      -0.42857143      -0.46428571       0.17857143 </v>
   <v>      -0.39285714      -0.46428571       0.17857143 </v>
   <v>      -0.35714286      -0.46428571       0.17857143 </v>
   <v>      -0.42857143      -0.42857143       0.17857143 </v>
   <v>      -0.39285714      -0.42857143       0.17857143 </v>
   <v>      -0.39285714      -0.39285714       0.17857143 </v>
   <v>       0.21428571       0.21428571       0.21428571 </v>
   <v>       0.25000000       0.21428571       0.21428571 </v>
   <v>       0.28571429       0.21428571       0.21428571 </v>
   <v>      -0.21428571       0.21428571       0.21428571 </v>
   <v>       0.25000000       0.25000000       0.21428571 </v>
   <v>      -0.25000000       0.25000000       0.21428571 </v>
   <v>      -0.28571429       0.28571429       0.21428571 </v>
   <v>      -0.25000000       0.28571429       0.21428571 </v>
   <v>      -0.32142857       0.32142857       0.21428571 </v>
   <v>      -0.28571429       0.32142857       0.21428571 </v>
   <v>      -0.35714286       0.35714286       0.21428571 </v>
   <v>      -0.32142857       0.35714286       0.21428571 </v>
   <v>      -0.28571429       0.35714286       0.21428571 </v>
   <v>      -0.39285714       0.39285714       0.21428571 </v>
   <v>      -0.35714286       0.39285714       0.21428571 </v>
   <v>      -0.32142857       0.39285714       0.21428571 </v>
   <v>      -0.42857143       0.42857143       0.21428571 </v>
   <v>      -0.39285714       0.42857143       0.21428571 </v>
   <v>      -0.35714286       0.42857143       0.21428571 </v>
   <v>      -0.32142857       0.42857143       0.21428571 </v>
   <v>      -0.46428571       0.46428571       0.21428571 </v>
   <v>      -0.42857143       0.46428571       0.21428571 </v>
   <v>      -0.39285714       0.46428571       0.21428571 </v>
   <v>      -0.35714286       0.46428571       0.21428571 </v>
   <v>       0.50000000       0.50000000       0.21428571 </v>
   <v>      -0.46428571       0.50000000       0.21428571 </v>
   <v>      -0.42857143       0.50000000       0.21428571 </v>
   <v>      -0.39285714       0.50000000       0.21428571 </v>
   <v>      -0.35714286       0.50000000       0.21428571 </v>
   <v>      -0.46428571      -0.46428571       0.21428571 </v>
   <v>      -0.42857143      -0.46428571       0.21428571 </v>
   <v>      -0.39285714      -0.46428571       0.21428571 </v>
   <v>      -0.42857143      -0.42857143       0.21428571 </v>
   <v>      -0.39285714      -0.42857143       0.21428571 </v>
   <v>       0.25000000       0.25000000       0.25000000 </v>
   <v>      -0.25000000       0.25000000       0.25000000 </v>
   <v>      -0.28571429       0.28571429       0.25000000 </v>
   <v>      -0.32142857       0.32142857       0.25000000 </v>
   <v>      -0.28571429       0.32142857       0.25000000 </v>
   <v>      -0.35714286       0.35714286       0.25000000 </v>
   <v>      -0.32142857       0.35714286       0.25000000 </v>
   <v>      -0.39285714       0.39285714       0.25000000 </v>
   <v>      -0.35714286       0.39285714       0.25000000 </v>
   <v>      -0.32142857       0.39285714       0.25000000 </v>
   <v>      -0.42857143       0.42857143       0.25000000 </v>
   <v>      -0.39285714       0.42857143       0.25000000 </v>
   <v>      -0.35714286       0.42857143       0.25000000 </v>
   <v>      -0.46428571       0.46428571       0.25000000 </v>
   <v>      -0.42857143       0.46428571       0.25000000 </v>
   <v>      -0.39285714       0.46428571       0.25000000 </v>
   <v>      -0.35714286       0.46428571       0.25000000 </v>
   <v>       0.50000000       0.50000000       0.25000000 </v>
   <v>      -0.46428571       0.50000000       0.25000000 </v>
   <v>      -0.42857143       0.50000000       0.25000000 </v>
   <v>      -0.39285714       0.50000000       0.25000000 </v>
   <v>      -0.46428571      -0.46428571       0.25000000 </v>
   <v>      -0.42857143      -0.46428571       0.25000000 </v>
   <v>      -0.39285714      -0.46428571       0.25000000 </v>
   <v>      -0.42857143      -0.42857143       0.25000000 </v>
   <v>      -0.28571429       0.28571429       0.28571429 </v>
   <v>      -0.32142857       0.32142857       0.28571429 </v>
   <v>      -0.35714286       0.35714286       0.28571429 </v>
   <v>      -0.32142857       0.35714286       0.28571429 </v>
   <v>      -0.39285714       0.39285714       0.28571429 </v>
   <v>      -0.35714286       0.39285714       0.28571429 </v>
   <v>      -0.42857143       0.42857143       0.28571429 </v>
   <v>      -0.39285714       0.42857143       0.28571429 </v>
   <v>      -0.35714286       0.42857143       0.28571429 </v>
   <v>      -0.46428571       0.46428571       0.28571429 </v>
   <v>      -0.42857143       0.46428571       0.28571429 </v>
   <v>      -0.39285714       0.46428571       0.28571429 </v>
   <v>       0.50000000       0.50000000       0.28571429 </v>
   <v>      -0.46428571       0.50000000       0.28571429 </v>
   <v>      -0.42857143       0.50000000       0.28571429 </v>
   <v>      -0.39285714       0.50000000       0.28571429 </v>
   <v>      -0.46428571      -0.46428571       0.28571429 </v>
   <v>      -0.42857143      -0.46428571       0.28571429 </v>
   <v>      -0.42857143      -0.42857143       0.28571429 </v>
   <v>      -0.32142857       0.32142857       0.32142857 </v>
   <v>      -0.35714286       0.35714286       0.32142857 </v>
   <v>      -0.39285714       0.39285714       0.32142857 </v>
   <v>      -0.35714286       0.39285714       0.32142857 </v>
   <v>      -0.42857143       0.42857143       0.32142857 </v>
   <v>      -0.39285714       0.42857143       0.32142857 </v>
   <v>      -0.46428571       0.46428571       0.32142857 </v>
   <v>      -0.42857143       0.46428571       0.32142857 </v>
   <v>      -0.39285714       0.46428571       0.32142857 </v>
   <v>       0.50000000       0.50000000       0.32142857 </v>
   <v>      -0.46428571       0.50000000       0.32142857 </v>
   <v>      -0.42857143       0.50000000       0.32142857 </v>
   <v>      -0.46428571      -0.46428571       0.32142857 </v>
   <v>      -0.42857143      -0.46428571       0.32142857 </v>
   <v>      -0.35714286       0.35714286       0.35714286 </v>
   <v>      -0.39285714       0.39285714       0.35714286 </v>
   <v>      -0.42857143       0.42857143       0.35714286 </v>
   <v>      -0.39285714       0.42857143       0.35714286 </v>
   <v>      -0.46428571       0.46428571       0.35714286 </v>
   <v>      -0.42857143       0.46428571       0.35714286 </v>
   <v>       0.50000000       0.50000000       0.35714286 </v>
   <v>      -0.46428571       0.50000000       0.35714286 </v>
   <v>      -0.42857143       0.50000000       0.35714286 </v>
   <v>      -0.46428571      -0.46428571       0.35714286 </v>
   <v>      -0.39285714       0.39285714       0.39285714 </v>
   <v>      -0.42857143       0.42857143       0.39285714 </v>
   <v>      -0.46428571       0.46428571       0.39285714 </v>
   <v>      -0.42857143       0.46428571       0.39285714 </v>
   <v>       0.50000000       0.50000000       0.39285714 </v>
   <v>      -0.46428571       0.50000000       0.39285714 </v>
   <v>      -0.46428571      -0.46428571       0.39285714 </v>
   <v>      -0.42857143       0.42857143       0.42857143 </v>
   <v>      -0.46428571       0.46428571       0.42857143 </v>
   <v>       0.50000000       0.50000000       0.42857143 </v>
   <v>      -0.46428571       0.50000000       0.42857143 </v>
   <v>      -0.46428571       0.46428571       0.46428571 </v>
   <v>       0.50000000       0.50000000       0.46428571 </v>
   <v>       0.50000000       0.50000000       0.50000000 </v>
  </varray>
  <varray name="weights" >
   <v>       0.00004555 </v>
   <v>       0.00054665 </v>
   <v>       0.00054665 </v>
   <v>       0.00054665 </v>
   <v>       0.00054665 </v>
   <v>       0.00054665 </v>
   <v>       0.00054665 </v>
   <v>       0.00054665 </v>
   <v>       0.00054665 </v>
   <v>       0.00054665 </v>
   <v>       0.00054665 </v>
   <v>       0.00054665 </v>
   <v>       0.00054665 </v>
   <v>       0.00054665 </v>
   <v>       0.00027332 </v>
   <v>       0.00109329 </v>
   <v>       0.00218659 </v>
   <v>       0.00218659 </v>
   <v>       0.00218659 </v>
   <v>       0.00218659 </v>
   <v>       0.00218659 </v>
   <v>       0.00218659 </v>
   <v>       0.00218659 </v>
   <v>       0.00218659 </v>
   <v>       0.00218659 </v>
   <v>       0.00218659 </v>
   <v>       0.00218659 </v>
   <v>       0.00218659 </v>
   <v>       0.00109329 </v>
   <v>       0.00218659 </v>
   <v>       0.00218659 </v>
   <v>       0.00218659 </v>
   <v>       0.00218659 </v>
   <v>       0.00218659 </v>
   <v>       0.00218659 </v>
   <v>       0.00218659 </v>
   <v>       0.00218659 </v>
   <v>       0.00218659 </v>
   <v>       0.00218659 </v>
   <v>       0.00109329 </v>
   <v>       0.00109329 </v>
   <v>       0.00218659 </v>
   <v>       0.00218659 </v>
   <v>       0.00218659 </v>
   <v>       0.00218659 </v>
   <v>       0.00218659 </v>
   <v>       0.00218659 </v>
   <v>       0.00218659 </v>
   <v>       0.00218659 </v>
   <v>       0.00218659 </v>
   <v>       0.00109329 </v>
   <v>       0.00218659 </v>
   <v>       0.00218659 </v>
   <v>       0.00218659 </v>
   <v>       0.00218659 </v>
   <v>       0.00218659 </v>
   <v>       0.00218659 </v>
   <v>       0.00218659 </v>
   <v>       0.00109329 </v>
   <v>       0.00109329 </v>
   <v>       0.00218659 </v>
   <v>       0.00218659 </v>
   <v>       0.00218659 </v>
   <v>       0.00218659 </v>
   <v>       0.00218659 </v>
   <v>       0.00218659 </v>
   <v>       0.00109329 </v>
   <v>       0.00218659 </v>
   <v>       0.00218659 </v>
   <v>       0.00218659 </v>
   <v>       0.00218659 </v>
   <v>       0.00109329 </v>
   <v>       0.00109329 </v>
   <v>       0.00218659 </v>
   <v>       0.00218659 </v>
   <v>       0.00218659 </v>
   <v>       0.00109329 </v>
   <v>       0.00218659 </v>
   <v>       0.00109329 </v>
   <v>       0.00109329 </v>
   <v>       0.00036443 </v>
   <v>       0.00109329 </v>
   <v>       0.00109329 </v>
   <v>       0.00109329 </v>
   <v>       0.00109329 </v>
   <v>       0.00109329 </v>
   <v>       0.00109329 </v>
   <v>       0.00109329 </v>
   <v>       0.00109329 </v>
   <v>       0.00109329 </v>
   <v>       0.00109329 </v>
   <v>       0.00109329 </v>
   <v>       0.00054665 </v>
   <v>       0.00027332 </v>
   <v>       0.00109329 </v>
   <v>       0.00218659 </v>
   <v>       0.00218659 </v>
   <v>       0.00218659 </v>
   <v>       0.00218659 </v>
   <v>       0.00218659 </v>
   <v>       0.00218659 </v>
   <v>       0.00218659 </v>
   <v>       0.00218659 </v>
   <v>       0.00218659 </v>
   <v>       0.00218659 </v>
   <v>       0.00109329 </v>
   <v>       0.00109329 </v>
   <v>       0.00218659 </v>
   <v>       0.00218659 </v>
   <v>       0.00218659 </v>
   <v>       0.00218659 </v>
   <v>       0.00218659 </v>
   <v>       0.00218659 </v>
   <v>       0.00218659 </v>
   <v>       0.00218659 </v>
   <v>       0.00109329 </v>
   <v>       0.00109329 </v>
   <v>       0.00109329 </v>
   <v>       0.00109329 </v>
   <v>       0.00218659 </v>
   <v>       0.00218659 </v>
   <v>       0.00218659 </v>
   <v>       0.00218659 </v>
   <v>       0.00218659 </v>
   <v>       0.00218659 </v>
   <v>       0.00218659 </v>
   <v>       0.00109329 </v>
   <v>       0.00218659 </v>
   <v>       0.00109329 </v>
   <v>       0.00218659 </v>
   <v>       0.00218659 </v>
   <v>       0.00218659 </v>
   <v>       0.00218659 </v>
   <v>       0.00218659 </v>
   <v>       0.00109329 </v>
   <v>       0.00109329 </v>
   <v>       0.00218659 </v>
   <v>       0.00109329 </v>
   <v>       0.00109329 </v>
   <v>       0.00218659 </v>
   <v>       0.00218659 </v>
   <v>       0.00218659 </v>
   <v>       0.00218659 </v>
   <v>       0.00109329 </v>
   <v>       0.00218659 </v>
   <v>       0.00218659 </v>
   <v>       0.00109329 </v>
   <v>       0.00218659 </v>
   <v>       0.00218659 </v>
   <v>       0.00109329 </v>
   <v>       0.00109329 </v>
   <v>       0.00218659 </v>
   <v>       0.00218659 </v>
   <v>       0.00109329 </v>
   <v>       0.00109329 </v>
   <v>       0.00218659 </v>
   <v>       0.00109329 </v>
   <v>       0.00218659 </v>
   <v>       0.00218659 </v>
   <v>       0.00218659 </v>
   <v>       0.00036443 </v>
   <v>       0.00109329 </v>
   <v>       0.00218659 </v>
   <v>       0.00218659 </v>
   <v>       0.00218659 </v>
   <v>       0.00109329 </v>
   <v>       0.00109329 </v>
   <v>       0.00218659 </v>
   <v>       0.00218659 </v>
   <v>       0.00218659 </v>
   <v>       0.00218659 </v>
   <v>       0.00109329 </v>
   <v>       0.00218659 </v>
   <v>       0.00218659 </v>
   <v>       0.00218659 </v>
   <v>       0.00218659 </v>
   <v>       0.00109329 </v>
   <v>       0.00109329 </v>
   <v>       0.00218659 </v>
   <v>       0.00218659 </v>
   <v>       0.00218659 </v>
   <v>       0.00218659 </v>
   <v>       0.00218659 </v>
   <v>       0.00109329 </v>
   <v>       0.00218659 </v>
   <v>       0.00218659 </v>
   <v>       0.00218659 </v>
   <v>       0.00218659 </v>
   <v>       0.00218659 </v>
   <v>       0.00109329 </v>
   <v>       0.00054665 </v>
   <v>       0.00218659 </v>
   <v>       0.00218659 </v>
   <v>       0.00218659 </v>
   <v>       0.00218659 </v>
   <v>       0.00218659 </v>
   <v>       0.00218659 </v>
   <v>       0.00109329 </v>
   <v>       0.00218659 </v>
   <v>       0.00218659 </v>
   <v>       0.00218659 </v>
   <v>       0.00218659 </v>
   <v>       0.00109329 </v>
   <v>       0.00109329 </v>
   <v>       0.00218659 </v>
   <v>       0.00218659 </v>
   <v>       0.00218659 </v>
   <v>       0.00109329 </v>
   <v>       0.00218659 </v>
   <v>       0.00109329 </v>
   <v>       0.00109329 </v>
   <v>       0.00036443 </v>
   <v>       0.00109329 </v>
   <v>       0.00109329 </v>
   <v>       0.00109329 </v>
   <v>       0.00109329 </v>
   <v>       0.00109329 </v>
   <v>       0.00109329 </v>
   <v>       0.00109329 </v>
   <v>       0.00109329 </v>
   <v>       0.00109329 </v>
   <v>       0.00054665 </v>
   <v>       0.00027332 </v>
   <v>       0.00109329 </v>
   <v>       0.00218659 </v>
   <v>       0.00218659 </v>
   <v>       0.00218659 </v>
   <v>       0.00218659 </v>
   <v>       0.00218659 </v>
   <v>       0.00218659 </v>
   <v>       0.00218659 </v>
   <v>       0.00218659 </v>
   <v>       0.00109329 </v>
   <v>       0.00109329 </v>
   <v>       0.00218659 </v>
   <v>       0.00218659 </v>
   <v>       0.00218659 </v>
   <v>       0.00218659 </v>
   <v>       0.00218659 </v>
   <v>       0.00218659 </v>
   <v>       0.00109329 </v>
   <v>       0.00109329 </v>
   <v>       0.00109329 </v>
   <v>       0.00109329 </v>
   <v>       0.00218659 </v>
   <v>       0.00218659 </v>
   <v>       0.00218659 </v>
   <v>       0.00218659 </v>
   <v>       0.00218659 </v>
   <v>       0.00109329 </v>
   <v>       0.00218659 </v>
   <v>       0.00109329 </v>
   <v>       0.00218659 </v>
   <v>       0.00218659 </v>
   <v>       0.00218659 </v>
   <v>       0.00109329 </v>
   <v>       0.00109329 </v>
   <v>       0.00218659 </v>
   <v>       0.00109329 </v>
   <v>       0.00109329 </v>
   <v>       0.00218659 </v>
   <v>       0.00218659 </v>
   <v>       0.00109329 </v>
   <v>       0.00218659 </v>
   <v>       0.00218659 </v>
   <v>       0.00109329 </v>
   <v>       0.00109329 </v>
   <v>       0.00109329 </v>
   <v>       0.00218659 </v>
   <v>       0.00218659 </v>
   <v>       0.00109329 </v>
   <v>       0.00109329 </v>
   <v>       0.00218659 </v>
   <v>       0.00218659 </v>
   <v>       0.00218659 </v>
   <v>       0.00109329 </v>
   <v>       0.00218659 </v>
   <v>       0.00218659 </v>
   <v>       0.00218659 </v>
   <v>       0.00109329 </v>
   <v>       0.00109329 </v>
   <v>       0.00218659 </v>
   <v>       0.00218659 </v>
   <v>       0.00218659 </v>
   <v>       0.00218659 </v>
   <v>       0.00109329 </v>
   <v>       0.00218659 </v>
   <v>       0.00218659 </v>
   <v>       0.00218659 </v>
   <v>       0.00218659 </v>
   <v>       0.00109329 </v>
   <v>       0.00109329 </v>
   <v>       0.00218659 </v>
   <v>       0.00218659 </v>
   <v>       0.00218659 </v>
   <v>       0.00218659 </v>
   <v>       0.00218659 </v>
   <v>       0.00054665 </v>
   <v>       0.00218659 </v>
   <v>       0.00218659 </v>
   <v>       0.00218659 </v>
   <v>       0.00218659 </v>
   <v>       0.00218659 </v>
   <v>       0.00109329 </v>
   <v>       0.00109329 </v>
   <v>       0.00218659 </v>
   <v>       0.00218659 </v>
   <v>       0.00218659 </v>
   <v>       0.00218659 </v>
   <v>       0.00109329 </v>
   <v>       0.00218659 </v>
   <v>       0.00218659 </v>
   <v>       0.00109329 </v>
   <v>       0.00109329 </v>
   <v>       0.00218659 </v>
   <v>       0.00036443 </v>
   <v>       0.00036443 </v>
   <v>       0.00109329 </v>
   <v>       0.00109329 </v>
   <v>       0.00109329 </v>
   <v>       0.00109329 </v>
   <v>       0.00109329 </v>
   <v>       0.00109329 </v>
   <v>       0.00109329 </v>
   <v>       0.00054665 </v>
   <v>       0.00027332 </v>
   <v>       0.00109329 </v>
   <v>       0.00218659 </v>
   <v>       0.00218659 </v>
   <v>       0.00218659 </v>
   <v>       0.00218659 </v>
   <v>       0.00218659 </v>
   <v>       0.00218659 </v>
   <v>       0.00109329 </v>
   <v>       0.00109329 </v>
   <v>       0.00218659 </v>
   <v>       0.00218659 </v>
   <v>       0.00218659 </v>
   <v>       0.00218659 </v>
   <v>       0.00109329 </v>
   <v>       0.00109329 </v>
   <v>       0.00109329 </v>
   <v>       0.00109329 </v>
   <v>       0.00218659 </v>
   <v>       0.00218659 </v>
   <v>       0.00218659 </v>
   <v>       0.00109329 </v>
   <v>       0.00218659 </v>
   <v>       0.00109329 </v>
   <v>       0.00218659 </v>
   <v>       0.00109329 </v>
   <v>       0.00109329 </v>
   <v>       0.00218659 </v>
   <v>       0.00109329 </v>
   <v>       0.00109329 </v>
   <v>       0.00109329 </v>
   <v>       0.00218659 </v>
   <v>       0.00218659 </v>
   <v>       0.00109329 </v>
   <v>       0.00218659 </v>
   <v>       0.00218659 </v>
   <v>       0.00109329 </v>
   <v>       0.00109329 </v>
   <v>       0.00218659 </v>
   <v>       0.00218659 </v>
   <v>       0.00218659 </v>
   <v>       0.00109329 </v>
   <v>       0.00218659 </v>
   <v>       0.00218659 </v>
   <v>       0.00218659 </v>
   <v>       0.00109329 </v>
   <v>       0.00109329 </v>
   <v>       0.00218659 </v>
   <v>       0.00218659 </v>
   <v>       0.00218659 </v>
   <v>       0.00218659 </v>
   <v>       0.00109329 </v>
   <v>       0.00218659 </v>
   <v>       0.00218659 </v>
   <v>       0.00218659 </v>
   <v>       0.00218659 </v>
   <v>       0.00109329 </v>
   <v>       0.00054665 </v>
   <v>       0.00218659 </v>
   <v>       0.00218659 </v>
   <v>       0.00218659 </v>
   <v>       0.00218659 </v>
   <v>       0.00218659 </v>
   <v>       0.00109329 </v>
   <v>       0.00218659 </v>
   <v>       0.00218659 </v>
   <v>       0.00218659 </v>
   <v>       0.00109329 </v>
   <v>       0.00109329 </v>
   <v>       0.00218659 </v>
   <v>       0.00218659 </v>
   <v>       0.00109329 </v>
   <v>       0.00109329 </v>
   <v>       0.00036443 </v>
   <v>       0.00109329 </v>
   <v>       0.00109329 </v>
   <v>       0.00109329 </v>
   <v>       0.00109329 </v>
   <v>       0.00109329 </v>
   <v>       0.00054665 </v>
   <v>       0.00027332 </v>
   <v>       0.00109329 </v>
   <v>       0.00218659 </v>
   <v>       0.00218659 </v>
   <v>       0.00218659 </v>
   <v>       0.00218659 </v>
   <v>       0.00109329 </v>
   <v>       0.00109329 </v>
   <v>       0.00218659 </v>
   <v>       0.00218659 </v>
   <v>       0.00109329 </v>
   <v>       0.00109329 </v>
   <v>       0.00109329 </v>
   <v>       0.00109329 </v>
   <v>       0.00218659 </v>
   <v>       0.00109329 </v>
   <v>       0.00218659 </v>
   <v>       0.00036443 </v>
   <v>       0.00109329 </v>
   <v>       0.00218659 </v>
   <v>       0.00109329 </v>
   <v>       0.00109329 </v>
   <v>       0.00218659 </v>
   <v>       0.00218659 </v>
   <v>       0.00109329 </v>
   <v>       0.00218659 </v>
   <v>       0.00218659 </v>
   <v>       0.00109329 </v>
   <v>       0.00109329 </v>
   <v>       0.00218659 </v>
   <v>       0.00218659 </v>
   <v>       0.00218659 </v>
   <v>       0.00109329 </v>
   <v>       0.00218659 </v>
   <v>       0.00218659 </v>
   <v>       0.00218659 </v>
   <v>       0.00109329 </v>
   <v>       0.00109329 </v>
   <v>       0.00218659 </v>
   <v>       0.00218659 </v>
   <v>       0.00218659 </v>
   <v>       0.00218659 </v>
   <v>       0.00054665 </v>
   <v>       0.00218659 </v>
   <v>       0.00218659 </v>
   <v>       0.00218659 </v>
   <v>       0.00218659 </v>
   <v>       0.00109329 </v>
   <v>       0.00109329 </v>
   <v>       0.00218659 </v>
   <v>       0.00218659 </v>
   <v>       0.00218659 </v>
   <v>       0.00109329 </v>
   <v>       0.00218659 </v>
   <v>       0.00109329 </v>
   <v>       0.00109329 </v>
   <v>       0.00036443 </v>
   <v>       0.00109329 </v>
   <v>       0.00109329 </v>
   <v>       0.00109329 </v>
   <v>       0.00054665 </v>
   <v>       0.00027332 </v>
   <v>       0.00109329 </v>
   <v>       0.00218659 </v>
   <v>       0.00218659 </v>
   <v>       0.00109329 </v>
   <v>       0.00109329 </v>
   <v>       0.00109329 </v>
   <v>       0.00109329 </v>
   <v>       0.00109329 </v>
   <v>       0.00109329 </v>
   <v>       0.00218659 </v>
   <v>       0.00109329 </v>
   <v>       0.00218659 </v>
   <v>       0.00109329 </v>
   <v>       0.00109329 </v>
   <v>       0.00218659 </v>
   <v>       0.00218659 </v>
   <v>       0.00109329 </v>
   <v>       0.00218659 </v>
   <v>       0.00218659 </v>
   <v>       0.00109329 </v>
   <v>       0.00109329 </v>
   <v>       0.00218659 </v>
   <v>       0.00218659 </v>
   <v>       0.00218659 </v>
   <v>       0.00109329 </v>
   <v>       0.00218659 </v>
   <v>       0.00218659 </v>
   <v>       0.00218659 </v>
   <v>       0.00109329 </v>
   <v>       0.00054665 </v>
   <v>       0.00218659 </v>
   <v>       0.00218659 </v>
   <v>       0.00218659 </v>
   <v>       0.00218659 </v>
   <v>       0.00109329 </v>
   <v>       0.00218659 </v>
   <v>       0.00218659 </v>
   <v>       0.00109329 </v>
   <v>       0.00109329 </v>
   <v>       0.00218659 </v>
   <v>       0.00036443 </v>
   <v>       0.00036443 </v>
   <v>       0.00109329 </v>
   <v>       0.00054665 </v>
   <v>       0.00027332 </v>
   <v>       0.00109329 </v>
   <v>       0.00109329 </v>
   <v>       0.00109329 </v>
   <v>       0.00109329 </v>
   <v>       0.00109329 </v>
   <v>       0.00218659 </v>
   <v>       0.00109329 </v>
   <v>       0.00218659 </v>
   <v>       0.00109329 </v>
   <v>       0.00109329 </v>
   <v>       0.00218659 </v>
   <v>       0.00218659 </v>
   <v>       0.00109329 </v>
   <v>       0.00218659 </v>
   <v>       0.00218659 </v>
   <v>       0.00109329 </v>
   <v>       0.00109329 </v>
   <v>       0.00218659 </v>
   <v>       0.00218659 </v>
   <v>       0.00218659 </v>
   <v>       0.00054665 </v>
   <v>       0.00218659 </v>
   <v>       0.00218659 </v>
   <v>       0.00218659 </v>
   <v>       0.00109329 </v>
   <v>       0.00109329 </v>
   <v>       0.00218659 </v>
   <v>       0.00218659 </v>
   <v>       0.00109329 </v>
   <v>       0.00109329 </v>
   <v>       0.00009111 </v>
   <v>       0.00027332 </v>
   <v>       0.00109329 </v>
   <v>       0.00109329 </v>
   <v>       0.00109329 </v>
   <v>       0.00109329 </v>
   <v>       0.00218659 </v>
   <v>       0.00109329 </v>
   <v>       0.00218659 </v>
   <v>       0.00109329 </v>
   <v>       0.00109329 </v>
   <v>       0.00218659 </v>
   <v>       0.00218659 </v>
   <v>       0.00109329 </v>
   <v>       0.00218659 </v>
   <v>       0.00218659 </v>
   <v>       0.00109329 </v>
   <v>       0.00054665 </v>
   <v>       0.00218659 </v>
   <v>       0.00218659 </v>
   <v>       0.00218659 </v>
   <v>       0.00109329 </v>
   <v>       0.00218659 </v>
   <v>       0.00109329 </v>
   <v>       0.00109329 </v>
   <v>       0.00027332 </v>
   <v>       0.00109329 </v>
   <v>       0.00109329 </v>
   <v>       0.00109329 </v>
   <v>       0.00109329 </v>
   <v>       0.00218659 </v>
   <v>       0.00109329 </v>
   <v>       0.00218659 </v>
   <v>       0.00109329 </v>
   <v>       0.00109329 </v>
   <v>       0.00218659 </v>
   <v>       0.00218659 </v>
   <v>       0.00054665 </v>
   <v>       0.00218659 </v>
   <v>       0.00218659 </v>
   <v>       0.00109329 </v>
   <v>       0.00109329 </v>
   <v>       0.00218659 </v>
   <v>       0.00036443 </v>
   <v>       0.00027332 </v>
   <v>       0.00109329 </v>
   <v>       0.00109329 </v>
   <v>       0.00109329 </v>
   <v>       0.00109329 </v>
   <v>       0.00218659 </v>
   <v>       0.00109329 </v>
   <v>       0.00218659 </v>
   <v>       0.00109329 </v>
   <v>       0.00054665 </v>
   <v>       0.00218659 </v>
   <v>       0.00218659 </v>
   <v>       0.00109329 </v>
   <v>       0.00109329 </v>
   <v>       0.00027332 </v>
   <v>       0.00109329 </v>
   <v>       0.00109329 </v>
   <v>       0.00109329 </v>
   <v>       0.00109329 </v>
   <v>       0.00218659 </v>
   <v>       0.00054665 </v>
   <v>       0.00218659 </v>
   <v>       0.00109329 </v>
   <v>       0.00109329 </v>
   <v>       0.00027332 </v>
   <v>       0.00109329 </v>
   <v>       0.00109329 </v>
   <v>       0.00109329 </v>
   <v>       0.00054665 </v>
   <v>       0.00218659 </v>
   <v>       0.00036443 </v>
   <v>       0.00027332 </v>
   <v>       0.00109329 </v>
   <v>       0.00054665 </v>
   <v>       0.00109329 </v>
   <v>       0.00027332 </v>
   <v>       0.00054665 </v>
   <v>       0.00004555 </v>
  </varray>
 </kpoints>
 <parameters>
  <separator name="general" >
   <i type="string" name="SYSTEM">unknown system</i>
   <i type="logical" name="LCOMPAT"> F  </i>
  </separator>
  <separator name="electronic" >
   <i type="string" name="PREC">high</i>
   <i name="ENMAX">    560.00000000</i>
   <i name="ENAUG">    482.84800000</i>
   <i name="EDIFF">      0.00000100</i>
   <i type="int" name="IALGO">    38</i>
   <i type="int" name="IWAVPR">     0</i>
   <i type="int" name="NBANDS">    10</i>
   <i name="NELECT">     12.00000000</i>
   <i type="int" name="TURBO">     0</i>
   <i type="int" name="IRESTART">     0</i>
   <i type="int" name="NREBOOT">     0</i>
   <i type="int" name="NMIN">     0</i>
   <i name="EREF">      0.00000000</i>
   <separator name="electronic smearing" >
    <i type="int" name="ISMEAR">     1</i>
    <i name="SIGMA">      0.16000000</i>
    <i name="KSPACING">      0.10000000</i>
    <i type="logical" name="KGAMMA"> T  </i>
   </separator>
   <separator name="electronic projectors" >
    <i type="logical" name="LREAL"> F  </i>
    <v name="ROPT">      0.00000000</v>
    <i type="int" name="LMAXPAW">  -100</i>
    <i type="int" name="LMAXMIX">     2</i>
    <i type="logical" name="NLSPLINE"> F  </i>
   </separator>
   <separator name="electronic startup" >
    <i type="int" name="ISTART">     0</i>
    <i type="int" name="ICHARG">     2</i>
    <i type="int" name="INIWAV">     1</i>
   </separator>
   <separator name="electronic spin" >
    <i type="int" name="ISPIN">     1</i>
    <i type="logical" name="LNONCOLLINEAR"> F  </i>
    <v name="MAGMOM">      1.00000000</v>
    <i name="NUPDOWN">     -1.00000000</i>
    <i type="logical" name="LSORBIT"> F  </i>
    <v name="SAXIS">      0.00000000      0.00000000      1.00000000</v>
    <i type="logical" name="LSPIRAL"> F  </i>
    <v name="QSPIRAL">      0.00000000      0.00000000      0.00000000</v>
    <i type="logical" name="LZEROZ"> F  </i>
   </separator>
   <separator name="electronic exchange-correlation" >
    <i type="logical" name="LASPH"> F  </i>
    <i type="logical" name="LMETAGGA"> F  </i>
   </separator>
   <separator name="electronic convergence" >
    <i type="int" name="NELM">   200</i>
    <i type="int" name="NELMDL">    -5</i>
    <i type="int" name="NELMIN">     5</i>
    <i name="ENINI">    560.00000000</i>
    <separator name="electronic convergence detail" >
     <i type="logical" name="LDIAG"> T  </i>
     <i type="logical" name="LSUBROT"> F  </i>
     <i name="WEIMIN">      0.00000000</i>
     <i name="EBREAK">      0.00000002</i>
     <i name="DEPER">      0.30000000</i>
     <i type="int" name="NRMM">     4</i>
     <i name="TIME">      0.40000000</i>
    </separator>
   </separator>
   <separator name="electronic mixer" >
    <i name="AMIX">      0.40000000</i>
    <i name="BMIX">      1.00000000</i>
    <i name="AMIN">      0.10000000</i>
    <i name="AMIX_MAG">      1.60000000</i>
    <i name="BMIX_MAG">      1.00000000</i>
    <separator name="electronic mixer details" >
     <i type="int" name="IMIX">     4</i>
     <i type="logical" name="MIXFIRST"> F  </i>
     <i type="int" name="MAXMIX">   -45</i>
     <i name="WC">    100.00000000</i>
     <i type="int" name="INIMIX">     1</i>
     <i type="int" name="MIXPRE">     1</i>
     <i type="int" name="MREMOVE">     5</i>
    </separator>
   </separator>
   <separator name="electronic dipolcorrection" >
    <i type="logical" name="LDIPOL"> F  </i>
    <i type="logical" name="LMONO"> F  </i>
    <i type="int" name="IDIPOL">     0</i>
    <i name="EPSILON">      1.00000000</i>
    <v name="DIPOL">   -100.00000000   -100.00000000   -100.00000000</v>
    <i name="EFIELD">      0.00000000</i>
   </separator>
  </separator>
  <separator name="grids" >
   <i type="int" name="NGX">    24</i>
   <i type="int" name="NGY">    24</i>
   <i type="int" name="NGZ">    24</i>
   <i type="int" name="NGXF">    28</i>
   <i type="int" name="NGYF">    28</i>
   <i type="int" name="NGZF">    28</i>
   <i type="logical" name="ADDGRID"> F  </i>
  </separator>
  <separator name="ionic" >
   <i type="int" name="NSW">     0</i>
   <i type="int" name="IBRION">    -1</i>
   <i type="int" name="MDALGO">     0</i>
   <i type="int" name="ISIF">     2</i>
   <i name="PSTRESS">      0.00000000</i>
   <i name="EDIFFG">      0.00001000</i>
   <i type="int" name="NFREE">     0</i>
   <i name="POTIM">      0.50000000</i>
   <i name="SMASS">     -3.00000000</i>
   <i name="SCALEE">      1.00000000</i>
  </separator>
  <separator name="ionic md" >
   <i name="TEBEG">      0.00010000</i>
   <i name="TEEND">      0.00010000</i>
   <i type="int" name="NBLOCK">     1</i>
   <i type="int" name="KBLOCK">     1</i>
   <i type="int" name="NPACO">   256</i>
   <i name="APACO">     16.00000000</i>
  </separator>
  <separator name="symmetry" >
   <i type="int" name="ISYM">     2</i>
   <i name="SYMPREC">      0.00010000</i>
  </separator>
  <separator name="dos" >
   <i type="int" name="LORBIT">     0</i>
   <v name="RWIGS">     -1.00000000</v>
   <i type="int" name="NEDOS">   301</i>
   <i name="EMIN">     10.00000000</i>
   <i name="EMAX">    -10.00000000</i>
   <i name="EFERMI">      0.00000000</i>
  </separator>
  <separator name="writing" >
   <i type="int" name="NWRITE">     2</i>
   <i type="logical" name="LWAVE"> F  </i>
   <i type="logical" name="LDOWNSAMPLE"> F  </i>
   <i type="logical" name="LCHARG"> F  </i>
   <i type="logical" name="LPARD"> F  </i>
   <i type="logical" name="LVTOT"> F  </i>
   <i type="logical" name="LVHAR"> F  </i>
   <i type="logical" name="LELF"> F  </i>
   <i type="logical" name="LOPTICS"> F  </i>
   <v name="STM">      0.00000000      0.00000000      0.00000000      0.00000000      0.00000000      0.00000000      0.00000000</v>
  </separator>
  <separator name="performance" >
   <i type="int" name="NPAR">     1</i>
   <i type="int" name="NSIM">     4</i>
   <i type="int" name="NBLK">    -1</i>
   <i type="logical" name="LPLANE"> T  </i>
   <i type="logical" name="LSCALAPACK"> F  </i>
   <i type="logical" name="LSCAAWARE"> F  </i>
   <i type="logical" name="LSCALU"> F  </i>
   <i type="logical" name="LASYNC"> F  </i>
   <i type="logical" name="LORBITALREAL"> F  </i>
  </separator>
  <separator name="miscellaneous" >
   <i type="int" name="IDIOT">     3</i>
   <i type="int" name="ISPECIAL">     0</i>
   <i type="logical" name="LMUSIC"> F  </i>
   <v name="POMASS">     47.88000000</v>
   <v name="DARWINR">      0.00000000</v>
   <v name="DARWINV">      1.00000000</v>
   <i type="logical" name="LCORR"> T  </i>
  </separator>
  <i type="logical" name="GGA_COMPAT"> T  </i>
  <i type="logical" name="LBERRY"> F  </i>
  <i type="int" name="ICORELEVEL">     0</i>
  <i type="logical" name="LDAU"> F  </i>
  <i type="int" name="I_CONSTRAINED_M">     0</i>
  <separator name="electronic exchange-correlation" >
   <i type="string" name="GGA">PE</i>
   <i type="int" name="VOSKOWN">     0</i>
   <i type="logical" name="LHFCALC"> F  </i>
   <i type="string" name="PRECFOCK"></i>
   <i type="logical" name="LSYMGRAD"> F  </i>
   <i type="logical" name="LHFONE"> F  </i>
   <i type="logical" name="LRHFCALC"> F  </i>
   <i type="logical" name="LTHOMAS"> F  </i>
   <i type="logical" name="LMODELHF"> F  </i>
   <i name="ENCUT4O">     -1.00000000</i>
   <i type="int" name="EXXOEP">     0</i>
   <i type="int" name="FOURORBIT">     0</i>
   <i name="AEXX">      0.00000000</i>
   <i name="HFALPHA">      0.00000000</i>
   <i name="MCALPHA">      0.00000000</i>
   <i name="ALDAX">      1.00000000</i>
   <i name="AGGAX">      1.00000000</i>
   <i name="ALDAC">      1.00000000</i>
   <i name="AGGAC">      1.00000000</i>
   <i type="int" name="NKREDX">     1</i>
   <i type="int" name="NKREDY">     1</i>
   <i type="int" name="NKREDZ">     1</i>
   <i type="logical" name="SHIFTRED"> F  </i>
   <i type="logical" name="ODDONLY"> F  </i>
   <i type="logical" name="EVENONLY"> F  </i>
   <i type="int" name="LMAXFOCK">     0</i>
   <i type="int" name="NMAXFOCKAE">     0</i>
   <i type="logical" name="LFOCKAEDFT"> F  </i>
   <i name="HFSCREEN">      0.00000000</i>
   <i name="HFSCREENC">      0.00000000</i>
   <i type="int" name="NBANDSGWLOW">     0</i>
  </separator>
  <separator name="vdW DFT" >
   <i type="logical" name="LUSE_VDW"> F  </i>
   <i name="Zab_VDW">     -0.84910000</i>
   <i name="PARAM1">      0.12340000</i>
   <i name="PARAM2">      1.00000000</i>
   <i name="PARAM3">      0.00000000</i>
  </separator>
  <separator name="model GW" >
   <i type="int" name="MODEL_GW">     0</i>
   <i name="MODEL_EPS0">     10.60463917</i>
   <i name="MODEL_ALPHA">      1.00000000</i>
  </separator>
  <separator name="linear response parameters" >
   <i type="logical" name="LEPSILON"> F  </i>
   <i type="logical" name="LRPA"> F  </i>
   <i type="logical" name="LNABLA"> F  </i>
   <i type="logical" name="LVEL"> F  </i>
   <i type="int" name="KINTER">     0</i>
   <i name="CSHIFT">      0.10000000</i>
   <i name="OMEGAMAX">     -1.00000000</i>
   <i name="DEG_THRESHOLD">      0.00200000</i>
   <i name="RTIME">     -0.10000000</i>
   <i name="WPLASMAI">      0.00000000</i>
   <v name="DFIELD">      0.00000000      0.00000000      0.00000000</v>
   <v name="WPLASMA">      0.00000000      0.00000000      0.00000000      0.00000000      0.00000000      0.00000000      0.00000000      0.00000000      0.00000000</v>
  </separator>
  <separator name="orbital magnetization" >
   <i type="logical" name="NUCIND"> F  </i>
   <v name="MAGPOS">      0.00000000      0.00000000      0.00000000</v>
   <i type="logical" name="LNICSALL"> T  </i>
   <i type="logical" name="ORBITALMAG"> F  </i>
   <i type="logical" name="LMAGBLOCH"> F  </i>
   <i type="logical" name="LCHIMAG"> F  </i>
   <i type="logical" name="LGAUGE"> T  </i>
   <i type="int" name="MAGATOM">     0</i>
   <v name="MAGDIPOL">      0.00000000      0.00000000      0.00000000</v>
   <v name="AVECCONST">      0.00000000      0.00000000      0.00000000</v>
  </separator>
  <separator name="response functions" >
   <i type="logical" name="LADDER"> F  </i>
   <i type="logical" name="LRPAFORCE"> F  </i>
   <i type="logical" name="LFXC"> F  </i>
   <i type="logical" name="LHARTREE"> T  </i>
   <i type="int" name="IBSE">     0</i>
   <v type="int" name="KPOINT">    -1     0     0     0</v>
   <i type="logical" name="LTCTE"> F  </i>
   <i type="logical" name="LTETE"> F  </i>
   <i type="logical" name="LTRIPLET"> F  </i>
   <i type="logical" name="LFXCEPS"> F  </i>
   <i type="logical" name="LFXHEG"> F  </i>
   <i type="int" name="NATURALO">     2</i>
   <i type="logical" name="L2ORDER"> F  </i>
   <i type="logical" name="LMP2LT"> F  </i>
   <i type="logical" name="LUSEW"> F  </i>
   <i name="ENCUTGW">     -2.00000000</i>
   <i name="ENCUTGWSOFT">     -2.00000000</i>
   <i name="ENCUTLF">     -1.00000000</i>
   <i type="int" name="LMAXMP2">    -1</i>
   <i name="SCISSOR">      0.00000000</i>
   <i type="int" name="NOMEGA">     0</i>
   <i type="int" name="NOMEGAR">     0</i>
   <i type="int" name="NBANDSGW">    -1</i>
   <i type="int" name="NBANDSO">    -1</i>
   <i type="int" name="NBANDSV">    -1</i>
   <i type="int" name="NELM">   200</i>
   <i type="int" name="NELMHF">     1</i>
   <i type="int" name="DIM">     3</i>
   <i type="int" name="ANTIRES">     0</i>
   <i name="OMEGAMAX">    -30.00000000</i>
   <i name="OMEGAMIN">    -30.00000000</i>
   <i name="OMEGATL">   -200.00000000</i>
   <i type="int" name="OMEGAGRID">   140</i>
   <i name="CSHIFT">     -0.10000000</i>
   <i type="logical" name="SELFENERGY"> F  </i>
   <i type="logical" name="LSPECTRAL"> F  </i>
   <i type="logical" name="LSPECTRALGW"> F  </i>
   <i type="logical" name="LSINGLES"> F  </i>
   <i type="logical" name="LFERMIGW"> F  </i>
   <i type="logical" name="ODDONLYGW"> F  </i>
   <i type="logical" name="EVENONLYGW"> F  </i>
   <i type="int" name="NKREDLFX">     1</i>
   <i type="int" name="NKREDLFY">     1</i>
   <i type="int" name="NKREDLFZ">     1</i>
   <i type="int" name="MAXMEM">  2800</i>
   <i type="int" name="TELESCOPE">     0</i>
   <i type="int" name="TAUPAR">     1</i>
   <i type="int" name="OMEGAPAR">    -1</i>
   <i name="LAMBDA">      1.00000000</i>
  </separator>
  <separator name="External order field" >
   <i name="OFIELD_KAPPA">      0.00000000</i>
   <v name="OFIELD_K">      0.00000000      0.00000000      0.00000000</v>
   <i name="OFIELD_Q6_NEAR">      0.00000000</i>
   <i name="OFIELD_Q6_FAR">      0.00000000</i>
   <i name="OFIELD_A">      0.00000000</i>
  </separator>
 </parameters>
 <atominfo>
  <atoms>       1 </atoms>
  <types>       1 </types>
  <array name="atoms" >
   <dimension dim="1">ion</dimension>
   <field type="string">element</field>
   <field type="int">atomtype</field>
   <set>
    <rc><c>Ti</c><c>   1</c></rc>
   </set>
  </array>
  <array name="atomtypes" >
   <dimension dim="1">type</dimension>
   <field type="int">atomspertype</field>
   <field type="string">element</field>
   <field>mass</field>
   <field>valence</field>
   <field type="string">pseudopotential</field>
   <set>
    <rc><c>   1</c><c>Ti</c><c>     47.88000000</c><c>     12.00000000</c><c>  PAW_PBE Ti_sv 26Sep2005               </c></rc>
   </set>
  </array>
 </atominfo>
 <structure name="initialpos" >
  <crystal>
   <varray name="basis" >
    <v>      -1.64094825       1.64094825       1.64094825 </v>
    <v>       1.64094825      -1.64094825       1.64094825 </v>
    <v>       1.64094825       1.64094825      -1.64094825 </v>
   </varray>
   <i name="volume">     17.67439861 </i>
   <varray name="rec_basis" >
    <v>       0.00000000       0.30470187       0.30470187 </v>
    <v>       0.30470187       0.00000000       0.30470187 </v>
    <v>       0.30470187       0.30470187       0.00000000 </v>
   </varray>
  </crystal>
  <varray name="positions" >
   <v>       0.00000000       0.00000000       0.00000000 </v>
  </varray>
 </structure>
 <calculation>
  <scstep>
